
.Version 8.3.2 of ABINIT 
.(MPI version, prepared for a x86_64_darwin16.3.0_gnu6.0 computer) 

.Copyright (C) 1998-2017 ABINIT group . 
 ABINIT comes with ABSOLUTELY NO WARRANTY.
 It is free software, and you are welcome to redistribute it
 under certain conditions (GNU General Public License,
 see ~abinit/COPYING or http://www.gnu.org/copyleft/gpl.txt).

 ABINIT is a project of the Universite Catholique de Louvain,
 Corning Inc. and other collaborators, see ~abinit/doc/developers/contributors.txt .
 Please read ~abinit/doc/users/acknowledgments.html for suggested
 acknowledgments of the ABINIT effort.
 For more information, see http://www.abinit.org .

.Starting date : Fri 28 Apr 2017.
- ( at 21h30 )
  
- input  file    -> run.abi
- output file    -> run.abo
- root for input  files -> in
- root for output files -> out


 DATASET    1 : space group P3_2 2 1 (#154); Bravais hP (primitive hexag.)
================================================================================
 Values of the parameters that define the memory need for DATASET  1.
     intxc =       0    ionmov =       0      iscf =       7    lmnmax =       2
     lnmax =       2     mgfft =      30  mpssoang =       3    mqgrid =    3001
     natom =       9  nloc_mem =       1    nspden =       1   nspinor =       1
    nsppol =       1      nsym =       6    n1xccc =    2501    ntypat =       2
    occopt =       1   xclevel =       1
-    mband =          50        mffmem =           1         mkmem =           9
       mpw =         832          nfft =       17280          nkpt =           9
================================================================================
P This job should need less than                      11.889 Mbytes of memory.
  Rough estimation (10% accuracy) of disk space for files :
_ WF disk file :      5.715 Mbytes ; DEN or POT disk file :      0.134 Mbytes.
================================================================================


 DATASET    2 : space group P3_2 2 1 (#154); Bravais hP (primitive hexag.)
================================================================================
 Values of the parameters that define the memory need for DATASET  2.
     intxc =       0    ionmov =       0      iscf =      -2    lmnmax =       2
     lnmax =       2     mgfft =      30  mpssoang =       3    mqgrid =    3001
     natom =       9  nloc_mem =       1    nspden =       1   nspinor =       1
    nsppol =       1      nsym =       6    n1xccc =    2501    ntypat =       2
    occopt =       1   xclevel =       1
-    mband =          28        mffmem =           1         mkmem =          72
       mpw =         840          nfft =       17280          nkpt =          72
================================================================================
P This job should need less than                      30.959 Mbytes of memory.
  Rough estimation (10% accuracy) of disk space for files :
_ WF disk file :     25.842 Mbytes ; DEN or POT disk file :      0.134 Mbytes.
================================================================================


 DATASET    3 : space group P3_2 2 1 (#154); Bravais hP (primitive hexag.)
================================================================================
 Values of the parameters that define the memory need for DATASET  3.
     intxc =       0    ionmov =       0      iscf =       7    lmnmax =       2
     lnmax =       2     mgfft =      27  mpssoang =       3    mqgrid =    3001
     natom =       9  nloc_mem =       1    nspden =       1   nspinor =       1
    nsppol =       1      nsym =       6    n1xccc =    2501    ntypat =       2
    occopt =       1   xclevel =       1
-    mband =          50        mffmem =           1         mkmem =           9
       mpw =         832          nfft =       15552          nkpt =           9
================================================================================
P This job should need less than                      11.407 Mbytes of memory.
  Rough estimation (10% accuracy) of disk space for files :
_ WF disk file :      5.715 Mbytes ; DEN or POT disk file :      0.121 Mbytes.
================================================================================

--------------------------------------------------------------------------------
------------- Echo of variables that govern the present computation ------------
--------------------------------------------------------------------------------
-
- outvars: echo of selected default values                                      
-   iomode0 =  0 , fftalg0 =112 , wfoptalg0 =  0
-
- outvars: echo of global parameters not present in the input file              
-  max_nthreads =    0
-
 -outvars: echo values of preprocessed input variables --------
-          iomode           3
            acell      9.2843000799E+00  9.2843000799E+00  1.0213270550E+01 Bohr
              amu      2.80855000E+01  1.59994000E+01
             ecut1     8.00000000E+00 Hartree
             ecut2     8.00000000E+00 Hartree
             ecut3     7.91303771E+00 Hartree
          ecuteps1     0.00000000E+00 Hartree
          ecuteps2     0.00000000E+00 Hartree
          ecuteps3     3.05330465E-01 Hartree
          ecutwfn1     0.00000000E+00 Hartree
          ecutwfn2     0.00000000E+00 Hartree
          ecutwfn3     7.91303771E+00 Hartree
-          fftalg         112
        freqremax1     0.00000000E+00 Hartree
        freqremax2     0.00000000E+00 Hartree
        freqremax3     7.34986508E-01 Hartree
           getden1          0
           getden2          1
           getden3          0
           getwfk1          0
           getwfk2          0
           getwfk3          1
        gwcalctyp1          0
        gwcalctyp2          0
        gwcalctyp3          2
             iscf1          7
             iscf2         -2
             iscf3          7
           istwfk1       1    0    1    0    0    0    0    0    0
           istwfk2       1    0    0    0    0    0    0    0    0    0
                         0    0    0    0    1    0    0    0    0    0
                         0    0    0    0    0    0    0    0    0    0
                         0    0    0    0    0    0    0    0    1    0
                         0    0    0    0    0    0    0    0    0    1
           istwfk3       1    0    1    0    0    0    0    0    0
                       outvar_i_n : Printing only first  50 k-points.
           jdtset        1    2    3
              kpt1     0.00000000E+00  0.00000000E+00  0.00000000E+00
                       2.50000000E-01  0.00000000E+00  0.00000000E+00
                       5.00000000E-01  0.00000000E+00  0.00000000E+00
                       2.50000000E-01  2.50000000E-01  0.00000000E+00
                       0.00000000E+00  0.00000000E+00  3.33333333E-01
                       2.50000000E-01  0.00000000E+00  3.33333333E-01
                       5.00000000E-01  0.00000000E+00  3.33333333E-01
                      -2.50000000E-01  0.00000000E+00  3.33333333E-01
                       2.50000000E-01  2.50000000E-01  3.33333333E-01
              kpt2     0.00000000E+00  0.00000000E+00  0.00000000E+00
                       3.57142857E-02  0.00000000E+00  0.00000000E+00
                       7.14285714E-02  0.00000000E+00  0.00000000E+00
                       1.07142857E-01  0.00000000E+00  0.00000000E+00
                       1.42857143E-01  0.00000000E+00  0.00000000E+00
                       1.78571429E-01  0.00000000E+00  0.00000000E+00
                       2.14285714E-01  0.00000000E+00  0.00000000E+00
                       2.50000000E-01  0.00000000E+00  0.00000000E+00
                       2.85714286E-01  0.00000000E+00  0.00000000E+00
                       3.21428571E-01  0.00000000E+00  0.00000000E+00
                       3.57142857E-01  0.00000000E+00  0.00000000E+00
                       3.92857143E-01  0.00000000E+00  0.00000000E+00
                       4.28571429E-01  0.00000000E+00  0.00000000E+00
                       4.64285714E-01  0.00000000E+00  0.00000000E+00
                       5.00000000E-01  0.00000000E+00  0.00000000E+00
                       4.79166250E-01  4.16662500E-02  0.00000000E+00
                       4.58332500E-01  8.33325000E-02  0.00000000E+00
                       4.37498750E-01  1.24998750E-01  0.00000000E+00
                       4.16665000E-01  1.66665000E-01  0.00000000E+00
                       3.95831250E-01  2.08331250E-01  0.00000000E+00
                       3.74997500E-01  2.49997500E-01  0.00000000E+00
                       3.54163750E-01  2.91663750E-01  0.00000000E+00
                       3.33330000E-01  3.33330000E-01  0.00000000E+00
                       3.12496875E-01  3.12496875E-01  0.00000000E+00
                       2.91663750E-01  2.91663750E-01  0.00000000E+00
                       2.70830625E-01  2.70830625E-01  0.00000000E+00
                       2.49997500E-01  2.49997500E-01  0.00000000E+00
                       2.29164375E-01  2.29164375E-01  0.00000000E+00
                       2.08331250E-01  2.08331250E-01  0.00000000E+00
                       1.87498125E-01  1.87498125E-01  0.00000000E+00
                       1.66665000E-01  1.66665000E-01  0.00000000E+00
                       1.45831875E-01  1.45831875E-01  0.00000000E+00
                       1.24998750E-01  1.24998750E-01  0.00000000E+00
                       1.04165625E-01  1.04165625E-01  0.00000000E+00
                       8.33325000E-02  8.33325000E-02  0.00000000E+00
                       6.24993750E-02  6.24993750E-02  0.00000000E+00
                       4.16662500E-02  4.16662500E-02  0.00000000E+00
                       2.08331250E-02  2.08331250E-02  0.00000000E+00
                       0.00000000E+00  0.00000000E+00  0.00000000E+00
                       0.00000000E+00  0.00000000E+00  4.54545455E-02
                       0.00000000E+00  0.00000000E+00  9.09090909E-02
                       0.00000000E+00  0.00000000E+00  1.36363636E-01
                       0.00000000E+00  0.00000000E+00  1.81818182E-01
                       0.00000000E+00  0.00000000E+00  2.27272727E-01
                       0.00000000E+00  0.00000000E+00  2.72727273E-01
                       0.00000000E+00  0.00000000E+00  3.18181818E-01
                       0.00000000E+00  0.00000000E+00  3.63636364E-01
                       0.00000000E+00  0.00000000E+00  4.09090909E-01
                       0.00000000E+00  0.00000000E+00  4.54545455E-01
                       0.00000000E+00  0.00000000E+00  5.00000000E-01
              kpt3     0.00000000E+00  0.00000000E+00  0.00000000E+00
                       2.50000000E-01  0.00000000E+00  0.00000000E+00
                       5.00000000E-01  0.00000000E+00  0.00000000E+00
                       2.50000000E-01  2.50000000E-01  0.00000000E+00
                       0.00000000E+00  0.00000000E+00  3.33333333E-01
                       2.50000000E-01  0.00000000E+00  3.33333333E-01
                       5.00000000E-01  0.00000000E+00  3.33333333E-01
                      -2.50000000E-01  0.00000000E+00  3.33333333E-01
                       2.50000000E-01  2.50000000E-01  3.33333333E-01
                       outvar_i_n : Printing only first  50 k-points.
           kptopt1          1
           kptopt2         -6
           kptopt3          1
         kptrlatt        4    0    0      0    4    0      0    0    3
          kptrlen1     3.06398116E+01
          kptrlen2     3.00000000E+01
          kptrlen3     3.06398116E+01
P           mkmem1          9
P           mkmem2         72
P           mkmem3          9
            natom           9
            nband1         50
            nband2         28
            nband3         50
           nbdbuf1          0
           nbdbuf2          4
           nbdbuf3          0
           ndtset           3
           ndivsm1          0
           ndivsm2          8
           ndivsm3          0
          nfreqim1         -1
          nfreqim2         -1
          nfreqim3          5
          nfreqre1         -1
          nfreqre2         -1
          nfreqre3         30
            ngfft1         24      24      30
            ngfft2         24      24      30
            ngfft3         24      24      27
             nkpt1          9
             nkpt2         72
             nkpt3          9
           npweps1          0
           npweps2          0
           npweps3          9
           npwwfn1          0
           npwwfn2          0
           npwwfn3        811
             nsym           6
           ntypat           2
              occ      2.000000  2.000000  2.000000  2.000000  2.000000  2.000000
                       2.000000  2.000000  2.000000  2.000000  2.000000  2.000000
                       2.000000  2.000000  2.000000  2.000000  2.000000  2.000000
                       2.000000  2.000000  2.000000  2.000000  2.000000  2.000000
                       0.000000  0.000000  0.000000  0.000000  0.000000  0.000000
                       0.000000  0.000000  0.000000  0.000000  0.000000  0.000000
                       0.000000  0.000000  0.000000  0.000000  0.000000  0.000000
                       0.000000  0.000000  0.000000  0.000000  0.000000  0.000000
                       0.000000  0.000000
        optdriver1          0
        optdriver2          0
        optdriver3          3
            rprim      5.0000000000E-01 -8.6602540378E-01  0.0000000000E+00
                       5.0000000000E-01  8.6602540378E-01  0.0000000000E+00
                       0.0000000000E+00  0.0000000000E+00  1.0000000000E+00
           shiftk1     0.00000000E+00  0.00000000E+00  0.00000000E+00
           shiftk2     5.00000000E-01  5.00000000E-01  5.00000000E-01
           shiftk3     0.00000000E+00  0.00000000E+00  0.00000000E+00
          spgroup         154
           spmeth1          0
           spmeth2          0
           spmeth3          1
           symrel      1  0  0   0  1  0   0  0  1       1  0  0  -1 -1  0   0  0 -1
                       0  1  0  -1 -1  0   0  0  1       0  1  0   1  0  0   0  0 -1
                      -1 -1  0   1  0  0   0  0  1      -1 -1  0   0  1  0   0  0 -1
           timopt          -1
            tnons      0.0000000  0.0000000  0.0000000     0.0000000  0.0000000  0.0000000
                       0.0000000  0.0000000 -0.3333333     0.0000000  0.0000000 -0.3333333
                       0.0000000  0.0000000  0.3333333     0.0000000  0.0000000  0.3333333
           tolvrs1     1.00000000E-12
           tolvrs2     0.00000000E+00
           tolvrs3     0.00000000E+00
           tolwfr1     0.00000000E+00
           tolwfr2     1.00000000E-16
           tolwfr3     0.00000000E+00
            typat      1  1  1  2  2  2  2  2  2
              wtk1       0.02083    0.12500    0.06250    0.12500    0.04167    0.12500
                         0.12500    0.12500    0.25000
              wtk2       1.00000    1.00000    1.00000    1.00000    1.00000    1.00000
                         1.00000    1.00000    1.00000    1.00000    1.00000    1.00000
                         1.00000    1.00000    1.00000    1.00000    1.00000    1.00000
                         1.00000    1.00000    1.00000    1.00000    1.00000    1.00000
                         1.00000    1.00000    1.00000    1.00000    1.00000    1.00000
                         1.00000    1.00000    1.00000    1.00000    1.00000    1.00000
                         1.00000    1.00000    1.00000    1.00000    1.00000    1.00000
                         1.00000    1.00000    1.00000    1.00000    1.00000    1.00000
                         1.00000    1.00000
              wtk3       0.02083    0.12500    0.06250    0.12500    0.04167    0.12500
                         0.12500    0.12500    0.25000
                       outvars : Printing only first  50 k-points.
           xangst      1.1422818000E+00 -1.9784901142E+00  0.0000000000E+00
                       1.1422818000E+00  1.9784901142E+00  3.6030866667E+00
                      -2.2845636000E+00  0.0000000000E+00  1.8015433333E+00
                       1.6876292400E+00 -6.0843889532E-01  6.4855560000E-01
                      -1.3707381600E+00 -1.1573103463E+00  2.4500989333E+00
                      -3.1689108000E-01  1.7657492417E+00  4.2516422667E+00
                      -3.1689108000E-01 -1.7657492417E+00 -6.4855560000E-01
                       1.6876292400E+00  6.0843889532E-01  2.9545310667E+00
                      -1.3707381600E+00  1.1573103463E+00  1.1529877333E+00
            xcart      2.1585997686E+00 -3.7388044724E+00  0.0000000000E+00
                       2.1585997686E+00  3.7388044724E+00  6.8088470331E+00
                      -4.3171995372E+00  0.0000000000E+00  3.4044235165E+00
                       3.1891570774E+00 -1.1497828807E+00  1.2255924659E+00
                      -2.5903197223E+00 -2.1869996053E+00  4.6300159825E+00
                      -5.9883735515E-01  3.3367824861E+00  8.0344394990E+00
                      -5.9883735515E-01 -3.3367824861E+00 -1.2255924659E+00
                       3.1891570774E+00  1.1497828807E+00  5.5832545671E+00
                      -2.5903197223E+00  2.1869996053E+00  2.1788310506E+00
             xred      4.6500000000E-01  0.0000000000E+00  0.0000000000E+00
                       0.0000000000E+00  4.6500000000E-01  6.6666666667E-01
                      -4.6500000000E-01 -4.6500000000E-01  3.3333333333E-01
                       4.1500000000E-01  2.7200000000E-01  1.2000000000E-01
                      -1.4300000000E-01 -4.1500000000E-01  4.5333333333E-01
                      -2.7200000000E-01  1.4300000000E-01  7.8666666667E-01
                       1.4300000000E-01 -2.7200000000E-01 -1.2000000000E-01
                       2.7200000000E-01  4.1500000000E-01  5.4666666667E-01
                      -4.1500000000E-01 -1.4300000000E-01  2.1333333333E-01
            znucl       14.00000    8.00000

================================================================================

 chkinp: Checking input parameters for consistency, jdtset=   1.

 chkinp: Checking input parameters for consistency, jdtset=   2.

 chkinp: Checking input parameters for consistency, jdtset=   3.

================================================================================
== DATASET  1 ==================================================================
-   nproc =    1

 Exchange-correlation functional for the present dataset will be:
  LDA: new Teter (4/93) with spin-polarized option - ixc=1
 Citation for XC functional:
  S. Goedecker, M. Teter, J. Huetter, PRB 54, 1703 (1996)

 Real(R)+Recip(G) space primitive vectors, cartesian coordinates (Bohr,Bohr^-1):
 R(1)=  4.6421500 -8.0404397  0.0000000  G(1)=  0.1077087 -0.0621857  0.0000000
 R(2)=  4.6421500  8.0404397  0.0000000  G(2)=  0.1077087  0.0621857  0.0000000
 R(3)=  0.0000000  0.0000000 10.2132705  G(3)=  0.0000000  0.0000000  0.0979118
 Unit cell volume ucvol=  7.6241917E+02 bohr^3
 Angles (23,13,12)=  9.00000000E+01  9.00000000E+01  1.20000000E+02 degrees

 getcut: wavevector=  0.0000  0.0000  0.0000  ngfft=  24  24  30
         ecut(hartree)=      8.000   => boxcut(ratio)=   2.03026

--- Pseudopotential description ------------------------------------------------
- pspini: atom type   1  psp file is /Users/gmatteo/git_repos/abipy/abipy/data/pseudos/14si.pspnc
- pspatm: opening atomic psp file    /Users/gmatteo/git_repos/abipy/abipy/data/pseudos/14si.pspnc
-  Troullier-Martins psp for element  Si        Thu Oct 27 17:31:21 EDT 1994
- 14.00000   4.00000    940714                znucl, zion, pspdat
    1    1    2    2      2001   0.00000      pspcod,pspxc,lmax,lloc,mmax,r2well
    0   5.907  14.692    1   2.0872718        l,e99.0,e99.9,nproj,rcpsp
   0.00000000   0.00000000   0.00000000   0.00000000     rms, ekb1, ekb2, epsatm
    1   2.617   4.181    1   2.0872718        l,e99.0,e99.9,nproj,rcpsp
   0.00000000   0.00000000   0.00000000   0.00000000     rms, ekb1, ekb2, epsatm
    2   0.000   0.000    0   2.0872718        l,e99.0,e99.9,nproj,rcpsp
   0.00000000   0.00000000   0.00000000   0.00000000     rms, ekb1, ekb2, epsatm
    1.80626423934776    0.22824404341771    1.17378968127746   rchrg,fchrg,qchrg
 pspatm: epsatm=    1.43386982
         --- l  ekb(1:nproj) -->
             0    3.287949
             1    1.849886
 pspatm: atomic psp has been read  and splines computed

- pspini: atom type   2  psp file is /Users/gmatteo/git_repos/abipy/abipy/data/pseudos/8o.pspnc
- pspatm: opening atomic psp file    /Users/gmatteo/git_repos/abipy/abipy/data/pseudos/8o.pspnc
-  Troullier-Martins psp for element  O         Thu Oct 27 17:29:57 EDT 1994
-  8.00000   6.00000    940714                znucl, zion, pspdat
    1    1    1    1      2001   0.00000      pspcod,pspxc,lmax,lloc,mmax,r2well
    0   5.480  16.893    1   1.4482335        l,e99.0,e99.9,nproj,rcpsp
   0.00000000   0.00000000   0.00000000   0.00000000     rms, ekb1, ekb2, epsatm
    1  20.911  28.075    0   1.4482335        l,e99.0,e99.9,nproj,rcpsp
   0.00000000   0.00000000   0.00000000   0.00000000     rms, ekb1, ekb2, epsatm
    0.56990156784787    3.95561236318184    0.63894027514378   rchrg,fchrg,qchrg
 pspatm: epsatm=    1.57752239
         --- l  ekb(1:nproj) -->
             0    5.670783
 pspatm: atomic psp has been read  and splines computed

   6.60803703E+02                                ecore*ucvol(ha*bohr**3)
--------------------------------------------------------------------------------

_setup2: Arith. and geom. avg. npw (full set) are     826.688     826.678

================================================================================

     iter   Etot(hartree)      deltaE(h)  residm     vres2
 ETOT  1  -104.51515141143    -1.045E+02 2.557E-02 3.881E+02
 ETOT  2  -105.29435790221    -7.792E-01 2.595E-03 1.245E+02
 ETOT  3  -105.64748977779    -3.531E-01 3.494E-03 1.476E-01
 ETOT  4  -105.64790643912    -4.167E-04 6.521E-04 1.551E-02
 ETOT  5  -105.64793090763    -2.447E-05 6.399E-05 4.335E-04
 ETOT  6  -105.64793109802    -1.904E-07 2.493E-05 4.784E-06
 ETOT  7  -105.64793110025    -2.236E-09 5.352E-06 1.800E-07
 ETOT  8  -105.64793110036    -1.098E-10 4.443E-06 1.136E-08
 ETOT  9  -105.64793110038    -1.650E-11 1.067E-06 1.425E-10
 ETOT 10  -105.64793110038     1.705E-13 9.692E-07 8.665E-12
 ETOT 11  -105.64793110038    -2.132E-13 2.523E-07 3.710E-13

 At SCF step   11       vres2   =  3.71E-13 < tolvrs=  1.00E-12 =>converged.

 Cartesian components of stress tensor (hartree/bohr^3)
  sigma(1 1)=  6.65701930E-03  sigma(3 2)=  0.00000000E+00
  sigma(2 2)=  6.65701930E-03  sigma(3 1)=  0.00000000E+00
  sigma(3 3)=  6.61150955E-03  sigma(2 1)=  0.00000000E+00

 Integrated electronic density in atomic spheres:
 ------------------------------------------------
 Atom  Sphere_radius  Integrated_density
    1        2.00000          2.73842621
    2        2.00000          2.73842621
    3        2.00000          2.73842621
    4        2.00000          6.20620658
    5        2.00000          6.20620658
    6        2.00000          6.20620658
    7        2.00000          6.20620658
    8        2.00000          6.20620658
    9        2.00000          6.20620658
================================================================================

 ----iterations are completed or convergence reached----

 Mean square residual over all n,k,spin=   8.0616E-10; max=  2.5225E-07
 reduced coordinates (array xred) for    9 atoms
       0.465000000000      0.000000000000      0.000000000000
       0.000000000000      0.465000000000      0.666666666667
      -0.465000000000     -0.465000000000      0.333333333333
       0.415000000000      0.272000000000      0.120000000000
      -0.143000000000     -0.415000000000      0.453333333333
      -0.272000000000      0.143000000000      0.786666666667
       0.143000000000     -0.272000000000     -0.120000000000
       0.272000000000      0.415000000000      0.546666666667
      -0.415000000000     -0.143000000000      0.213333333333
 rms dE/dt=  4.6222E-01; max dE/dt=  8.5929E-01; dE/dt below (all hartree)
    1       0.005676460581     -0.002838230290      0.000000000000
    2      -0.002838230290      0.005676460581      0.000000000000
    3      -0.002838230290     -0.002838230290      0.000000000000
    4       0.859290764696     -0.441773234049      0.472024139633
    5      -0.441773234049     -0.417517530647      0.472024139633
    6      -0.417517530647      0.859290764696      0.472024139633
    7       0.859290764696     -0.417517530647     -0.472024139633
    8      -0.441773234049      0.859290764696     -0.472024139633
    9      -0.417517530647     -0.441773234049     -0.472024139633

 cartesian coordinates (angstrom) at end:
    1      1.14228180000000    -1.97849011415109     0.00000000000000
    2      1.14228180000000     1.97849011415109     3.60308666666667
    3     -2.28456360000000     0.00000000000000     1.80154333333333
    4      1.68762924000000    -0.60843889531958     0.64855560000000
    5     -1.37073816000000    -1.15731034634214     2.45009893333333
    6     -0.31689108000000     1.76574924166173     4.25164226666667
    7     -0.31689108000000    -1.76574924166173    -0.64855560000000
    8      1.68762924000000     0.60843889531958     2.95453106666667
    9     -1.37073816000000     1.15731034634214     1.15298773333333

 cartesian forces (hartree/bohr) at end:
    1     -0.00030570212790     0.00052949161750     0.00000000000000
    2     -0.00030570212790    -0.00052949161750     0.00000000000000
    3      0.00061140425579     0.00000000000000     0.00000000000000
    4     -0.04497027530926     0.08090751520814    -0.04621674686303
    5      0.09255310118160    -0.00150835677087    -0.04621674686303
    6     -0.04758282587233    -0.07939915843727    -0.04621674686303
    7     -0.04758282587233     0.07939915843727     0.04621674686303
    8     -0.04497027530926    -0.08090751520814     0.04621674686303
    9      0.09255310118160     0.00150835677087     0.04621674686303
 frms,max,avg= 4.8772775E-02 9.2553101E-02   0.000E+00  0.000E+00  0.000E+00 h/b

 cartesian forces (eV/Angstrom) at end:
    1     -0.01571983413871     0.02722755141494     0.00000000000000
    2     -0.01571983413871    -0.02722755141494     0.00000000000000
    3      0.03143966827742     0.00000000000000     0.00000000000000
    4     -2.31246433872458     4.16043135975879    -2.37656047772974
    5      4.75927141759637    -0.07756281718806    -2.37656047772974
    6     -2.44680707887179    -4.08286854257073    -2.37656047772974
    7     -2.44680707887179     4.08286854257073     2.37656047772974
    8     -2.31246433872458    -4.16043135975879     2.37656047772974
    9      4.75927141759637     0.07756281718806     2.37656047772974
 frms,max,avg= 2.5079967E+00 4.7592714E+00   0.000E+00  0.000E+00  0.000E+00 e/A
 length scales=  9.284300079912  9.284300079912 10.213270549578 bohr
              =  4.913040000000  4.913040000000  5.404630000000 angstroms
 prteigrs : about to open file out_DS1_EIG
 Fermi (or HOMO) energy (hartree) =   0.15775   Average Vxc (hartree)=  -0.37630
 Eigenvalues (hartree) for nkpt=   9  k points:
 kpt#   1, nband= 50, wtk=  0.02083, kpt=  0.0000  0.0000  0.0000 (reduced coord)
  -0.84285   -0.80750   -0.80750   -0.79374   -0.79374   -0.79343   -0.21007   -0.21007
  -0.09113   -0.07683   -0.07590   -0.07590    0.00418    0.00418    0.01734    0.02270
   0.09577    0.09577    0.11165    0.11418    0.11632    0.11632    0.14366    0.14366
   0.22139    0.41485    0.41485    0.43465    0.43465    0.47557    0.56866    0.56866
   0.56925    0.57105    0.59671    0.59671    0.62802    0.62802    0.64657    0.66883
   0.68667    0.68667    0.69887    0.69887    0.75493    0.78355    0.78355    0.81584
   0.83107    0.83107
 prteigrs : prtvol=0 or 1, do not print more k-points.


--------------------------------------------------------------------------------
 Components of total free energy (in Hartree) :

    Kinetic energy  =  5.42614797816938E+01
    Hartree energy  =  2.97196345728047E+01
    XC energy       = -2.90804482084577E+01
    Ewald energy    = -6.95068319280861E+01
    PspCore energy  =  8.66719688288466E-01
    Loc. psp. energy= -1.10497956773841E+02
    NL   psp  energy=  1.85894717672208E+01
    >>>>>>>>> Etotal= -1.05647931100377E+02

 Other information on the energy :
    Total energy(eV)= -2.87482640718720E+03 ; Band energy (Ha)=  -9.3800045823E+00
--------------------------------------------------------------------------------

 Cartesian components of stress tensor (hartree/bohr^3)
  sigma(1 1)=  6.65701930E-03  sigma(3 2)=  0.00000000E+00
  sigma(2 2)=  6.65701930E-03  sigma(3 1)=  0.00000000E+00
  sigma(3 3)=  6.61150955E-03  sigma(2 1)=  0.00000000E+00

-Cartesian components of stress tensor (GPa)         [Pressure= -1.9541E+02 GPa]
- sigma(1 1)=  1.95856237E+02  sigma(3 2)=  0.00000000E+00
- sigma(2 2)=  1.95856237E+02  sigma(3 1)=  0.00000000E+00
- sigma(3 3)=  1.94517294E+02  sigma(2 1)=  0.00000000E+00

================================================================================
== DATASET  2 ==================================================================
-   nproc =    1

 mkfilename : getden/=0, take file _DEN from output of DATASET   1.

 Exchange-correlation functional for the present dataset will be:
  LDA: new Teter (4/93) with spin-polarized option - ixc=1
 Citation for XC functional:
  S. Goedecker, M. Teter, J. Huetter, PRB 54, 1703 (1996)

 Real(R)+Recip(G) space primitive vectors, cartesian coordinates (Bohr,Bohr^-1):
 R(1)=  4.6421500 -8.0404397  0.0000000  G(1)=  0.1077087 -0.0621857  0.0000000
 R(2)=  4.6421500  8.0404397  0.0000000  G(2)=  0.1077087  0.0621857  0.0000000
 R(3)=  0.0000000  0.0000000 10.2132705  G(3)=  0.0000000  0.0000000  0.0979118
 Unit cell volume ucvol=  7.6241917E+02 bohr^3
 Angles (23,13,12)=  9.00000000E+01  9.00000000E+01  1.20000000E+02 degrees

 getcut: wavevector=  0.0000  0.0000  0.0000  ngfft=  24  24  30
         ecut(hartree)=      8.000   => boxcut(ratio)=   2.03026
--------------------------------------------------------------------------------


================================================================================
 prteigrs : about to open file out_DS2_EIG
 Non-SCF case, kpt    1 (  0.00000  0.00000  0.00000), residuals and eigenvalues=
  9.51E-17  5.74E-17  4.93E-17  5.81E-17  4.20E-17  4.13E-17  1.67E-17  2.32E-17
  1.58E-17  1.44E-17  1.52E-17  2.80E-17  7.90E-17  5.09E-17  4.82E-17  8.22E-17
  9.79E-17  5.97E-17  2.52E-17  1.33E-17  4.53E-17  3.43E-17  5.26E-17  6.49E-17
  6.18E-17  1.19E-09  1.95E-05  5.07E-08
 -8.4285E-01 -8.0750E-01 -8.0750E-01 -7.9374E-01 -7.9374E-01 -7.9343E-01
 -2.1007E-01 -2.1007E-01 -9.1131E-02 -7.6825E-02 -7.5900E-02 -7.5900E-02
  4.1764E-03  4.1764E-03  1.7339E-02  2.2700E-02  9.5767E-02  9.5767E-02
  1.1165E-01  1.1418E-01  1.1632E-01  1.1632E-01  1.4366E-01  1.4366E-01
  2.2139E-01  4.1485E-01  4.1499E-01  4.3466E-01
  prteigrs : nnsclo,ikpt=   30    1 max resid (incl. the buffer)=  1.94983E-05
 Non-SCF case, kpt    2 (  0.03571  0.00000  0.00000), residuals and eigenvalues=
  9.94E-17  7.04E-17  5.79E-17  5.99E-17  2.95E-17  2.49E-17  3.55E-17  1.59E-17
  2.28E-17  2.13E-17  3.92E-17  2.05E-17  9.94E-17  2.92E-17  6.31E-17  8.08E-17
  8.51E-17  6.88E-17  3.40E-17  3.58E-17  4.98E-17  8.32E-17  6.21E-17  4.18E-17
  4.08E-17  4.31E-06  4.70E-07  4.74E-06
 -8.4274E-01 -8.0758E-01 -8.0749E-01 -7.9380E-01 -7.9375E-01 -7.9341E-01
 -2.1013E-01 -2.0985E-01 -9.1130E-02 -7.7281E-02 -7.6424E-02 -7.5708E-02
  3.0866E-03  4.2500E-03  1.7750E-02  2.3972E-02  9.5269E-02  9.5533E-02
  1.1110E-01  1.1347E-01  1.1617E-01  1.1742E-01  1.4242E-01  1.4516E-01
  2.2356E-01  4.1373E-01  4.1444E-01  4.3456E-01
  prteigrs : nnsclo,ikpt=   30    2 max resid (incl. the buffer)=  4.73822E-06
 Non-SCF case, kpt    3 (  0.07143  0.00000  0.00000), residuals and eigenvalues=
  9.02E-17  8.71E-17  2.23E-17  4.94E-17  2.69E-17  5.58E-17  3.12E-17  4.13E-17
  8.26E-17  8.32E-17  1.73E-17  8.10E-17  5.06E-17  2.78E-17  6.23E-17  4.24E-17
  8.16E-17  4.71E-17  7.62E-17  1.57E-17  1.29E-17  9.54E-17  5.76E-17  5.67E-17
  4.75E-17  1.08E-06  1.79E-06  3.27E-05
 -8.4244E-01 -8.0784E-01 -8.0747E-01 -7.9394E-01 -7.9383E-01 -7.9341E-01
 -2.1143E-01 -2.1059E-01 -9.1139E-02 -7.9352E-02 -7.8674E-02 -7.5684E-02
  2.5543E-04  3.9349E-03  1.8037E-02  2.5630E-02  8.9107E-02  9.2835E-02
  1.0821E-01  1.0987E-01  1.1389E-01  1.1540E-01  1.4167E-01  1.4567E-01
  2.2951E-01  4.1148E-01  4.1229E-01  4.3355E-01
  prteigrs : nnsclo,ikpt=   30    3 max resid (incl. the buffer)=  3.27314E-05
 Non-SCF case, kpt    4 (  0.10714  0.00000  0.00000), residuals and eigenvalues=
  2.86E-17  2.60E-17  9.38E-17  2.87E-17  2.03E-17  3.43E-17  2.36E-17  3.32E-17
  2.04E-17  9.59E-18  1.02E-17  5.55E-17  3.32E-17  4.51E-17  2.83E-17  7.24E-17
  1.87E-17  6.40E-17  8.75E-17  1.64E-17  1.91E-17  4.38E-17  6.23E-17  3.25E-17
  3.45E-17  8.40E-08  2.94E-08  1.86E-06
 -8.4197E-01 -8.0827E-01 -8.0743E-01 -7.9411E-01 -7.9391E-01 -7.9340E-01
 -2.1193E-01 -2.0919E-01 -9.1126E-02 -8.1126E-02 -8.0362E-02 -7.4570E-02
 -1.7116E-03  4.7908E-03  1.6952E-02  2.8413E-02  8.3615E-02  9.2291E-02
  1.0532E-01  1.0798E-01  1.1285E-01  1.1502E-01  1.4179E-01  1.4670E-01
  2.3766E-01  4.0890E-01  4.0976E-01  4.3255E-01
  prteigrs : nnsclo,ikpt=   30    4 max resid (incl. the buffer)=  1.85976E-06
 Non-SCF case, kpt    5 (  0.14286  0.00000  0.00000), residuals and eigenvalues=
  2.14E-17  9.09E-17  2.88E-17  6.82E-17  3.05E-17  5.48E-17  3.79E-17  1.89E-17
  5.00E-17  4.96E-17  1.51E-17  3.11E-17  2.60E-17  3.54E-17  3.88E-17  6.10E-17
  2.96E-17  9.04E-17  1.10E-17  8.48E-17  3.90E-17  6.30E-17  9.68E-17  5.13E-17
  1.35E-17  1.20E-08  2.95E-08  2.18E-05
 -8.4131E-01 -8.0887E-01 -8.0734E-01 -7.9430E-01 -7.9401E-01 -7.9341E-01
 -2.1347E-01 -2.0781E-01 -9.0649E-02 -8.3096E-02 -8.0217E-02 -7.1641E-02
 -3.9191E-03  5.0846E-03  1.6047E-02  3.2044E-02  7.7126E-02  9.0246E-02
  1.0184E-01  1.0507E-01  1.1324E-01  1.1463E-01  1.4455E-01  1.4761E-01
  2.4801E-01  4.0629E-01  4.0745E-01  4.3343E-01
  prteigrs : nnsclo,ikpt=   30    5 max resid (incl. the buffer)=  2.17918E-05
 Non-SCF case, kpt    6 (  0.17857  0.00000  0.00000), residuals and eigenvalues=
  9.43E-17  8.79E-17  2.17E-17  5.74E-17  1.50E-17  1.61E-17  4.55E-17  4.51E-17
  3.86E-17  6.38E-17  4.07E-17  6.48E-17  6.99E-17  2.20E-17  6.11E-17  4.94E-17
  2.48E-17  2.66E-17  1.01E-17  1.37E-17  1.59E-17  5.25E-17  6.21E-17  2.24E-17
  1.22E-17  2.30E-09  1.01E-08  1.72E-05
 -8.4049E-01 -8.0966E-01 -8.0726E-01 -7.9449E-01 -7.9412E-01 -7.9345E-01
 -2.1454E-01 -2.0570E-01 -9.0589E-02 -8.6343E-02 -8.0736E-02 -7.0167E-02
 -5.9486E-03  6.1875E-03  1.5681E-02  3.3424E-02  6.8206E-02  8.7818E-02
  9.7425E-02  1.0347E-01  1.1157E-01  1.1375E-01  1.4460E-01  1.4804E-01
  2.5925E-01  4.0410E-01  4.0542E-01  4.3459E-01
  prteigrs : nnsclo,ikpt=   30    6 max resid (incl. the buffer)=  1.72428E-05
 Non-SCF case, kpt    7 (  0.21429  0.00000  0.00000), residuals and eigenvalues=
  1.87E-17  3.75E-17  5.99E-17  2.77E-17  3.70E-17  1.78E-17  2.69E-17  2.38E-17
  1.45E-17  7.35E-17  1.40E-17  1.83E-17  3.36E-17  4.96E-17  2.36E-17  9.98E-17
  2.95E-17  3.49E-17  3.37E-17  5.63E-17  6.34E-17  1.87E-17  2.62E-17  8.85E-17
  2.78E-17  1.80E-09  3.97E-08  3.24E-05
 -8.3949E-01 -8.1059E-01 -8.0715E-01 -7.9468E-01 -7.9422E-01 -7.9350E-01
 -2.1494E-01 -2.0266E-01 -8.9612E-02 -8.8431E-02 -8.0278E-02 -6.6807E-02
 -8.0011E-03  7.7069E-03  1.6329E-02  3.6594E-02  6.0816E-02  8.7542E-02
  9.4416E-02  1.0325E-01  1.1221E-01  1.1537E-01  1.4575E-01  1.5127E-01
  2.7154E-01  4.0296E-01  4.0418E-01  4.3644E-01
  prteigrs : nnsclo,ikpt=   30    7 max resid (incl. the buffer)=  3.23683E-05
 Non-SCF case, kpt    8 (  0.25000  0.00000  0.00000), residuals and eigenvalues=
  4.27E-17  3.33E-17  2.61E-17  3.64E-17  2.63E-17  2.90E-17  3.11E-17  2.74E-17
  6.09E-17  1.94E-17  3.66E-17  3.19E-17  4.94E-17  5.59E-17  6.36E-17  5.31E-17
  2.83E-17  3.02E-17  8.94E-17  9.90E-17  9.88E-18  2.37E-17  5.33E-17  4.00E-17
  7.79E-17  4.33E-08  8.81E-08  2.08E-05
 -8.3837E-01 -8.1170E-01 -8.0705E-01 -7.9486E-01 -7.9434E-01 -7.9360E-01
 -2.1693E-01 -1.9976E-01 -9.3412E-02 -8.9437E-02 -7.8787E-02 -6.3445E-02
 -9.5356E-03  6.6548E-03  1.4447E-02  3.8535E-02  5.3384E-02  8.0621E-02
  8.9348E-02  9.8938E-02  1.1077E-01  1.1633E-01  1.4711E-01  1.5473E-01
  2.8298E-01  4.0228E-01  4.0271E-01  4.3880E-01
  prteigrs : nnsclo,ikpt=   30    8 max resid (incl. the buffer)=  2.07884E-05
 Non-SCF case, kpt    9 (  0.28571  0.00000  0.00000), residuals and eigenvalues=
  2.03E-17  2.28E-17  4.34E-17  1.87E-17  5.07E-17  2.35E-17  2.36E-17  2.05E-17
  3.28E-17  1.86E-17  5.07E-17  2.59E-17  1.62E-17  4.56E-17  4.84E-17  6.58E-17
  9.53E-17  2.76E-17  4.29E-17  6.31E-17  8.31E-17  1.02E-17  6.86E-17  7.07E-17
  6.57E-16  5.92E-09  4.17E-10  1.67E-05
 -8.3713E-01 -8.1294E-01 -8.0693E-01 -7.9499E-01 -7.9441E-01 -7.9369E-01
 -2.1749E-01 -1.9597E-01 -9.5202E-02 -8.8261E-02 -7.8523E-02 -5.9407E-02
 -9.6621E-03  6.3541E-03  1.6492E-02  3.8865E-02  4.8964E-02  7.6340E-02
  8.7195E-02  9.8241E-02  1.1231E-01  1.1536E-01  1.5213E-01  1.5596E-01
  2.9542E-01  4.0203E-01  4.0388E-01  4.4165E-01
  prteigrs : nnsclo,ikpt=   30    9 max resid (incl. the buffer)=  1.67205E-05
 Non-SCF case, kpt   10 (  0.32143  0.00000  0.00000), residuals and eigenvalues=
  7.79E-17  4.88E-17  2.51E-17  2.23E-17  3.22E-17  1.49E-17  5.64E-17  6.84E-17
  1.01E-17  5.42E-17  8.14E-17  4.73E-17  2.10E-17  4.00E-17  5.10E-17  4.46E-17
  9.52E-17  4.32E-17  2.91E-17  5.30E-17  6.29E-17  1.34E-17  7.40E-17  8.07E-17
  1.42E-15  3.73E-10  3.84E-09  2.76E-05
 -8.3579E-01 -8.1428E-01 -8.0681E-01 -7.9511E-01 -7.9452E-01 -7.9377E-01
 -2.1872E-01 -1.9229E-01 -9.9181E-02 -8.8163E-02 -7.9100E-02 -5.4735E-02
 -1.0791E-02  4.3975E-03  1.8423E-02  3.7531E-02  4.8335E-02  7.4268E-02
  8.3751E-02  9.7545E-02  1.1413E-01  1.1572E-01  1.5286E-01  1.5728E-01
  3.0758E-01  4.0197E-01  4.0632E-01  4.4370E-01
  prteigrs : nnsclo,ikpt=   30   10 max resid (incl. the buffer)=  2.75952E-05
 Non-SCF case, kpt   11 (  0.35714  0.00000  0.00000), residuals and eigenvalues=
  2.85E-17  6.11E-17  5.84E-17  2.87E-17  3.60E-17  1.69E-17  3.00E-17  6.78E-17
  8.00E-17  4.11E-17  4.05E-17  9.21E-17  5.10E-17  7.66E-17  7.59E-17  6.42E-17
  5.58E-17  5.54E-17  3.52E-17  5.36E-17  5.97E-17  6.71E-17  8.85E-17  5.19E-17
  1.39E-14  8.12E-10  1.17E-08  3.30E-05
 -8.3444E-01 -8.1571E-01 -8.0674E-01 -7.9523E-01 -7.9461E-01 -7.9387E-01
 -2.1980E-01 -1.8900E-01 -1.0625E-01 -8.9201E-02 -8.1163E-02 -5.2361E-02
 -1.2988E-02  6.0665E-04  1.8191E-02  3.4299E-02  4.7942E-02  6.7789E-02
  7.8195E-02  9.7249E-02  1.1398E-01  1.1582E-01  1.4786E-01  1.5412E-01
  3.1836E-01  4.0136E-01  4.0876E-01  4.4432E-01
  prteigrs : nnsclo,ikpt=   30   11 max resid (incl. the buffer)=  3.29568E-05
 Non-SCF case, kpt   12 (  0.39286  0.00000  0.00000), residuals and eigenvalues=
  1.73E-17  6.29E-17  3.75E-17  2.58E-17  1.72E-17  3.23E-17  1.43E-17  7.46E-17
  1.15E-17  1.73E-17  5.97E-17  3.54E-17  8.67E-17  2.61E-17  3.94E-17  2.50E-17
  3.35E-17  4.40E-17  3.64E-17  2.86E-17  2.16E-17  7.30E-17  9.73E-17  8.79E-17
  2.38E-14  7.81E-09  2.17E-09  4.33E-05
 -8.3313E-01 -8.1707E-01 -8.0666E-01 -7.9532E-01 -7.9468E-01 -7.9395E-01
 -2.2061E-01 -1.8597E-01 -1.1050E-01 -8.8816E-02 -8.2053E-02 -4.9299E-02
 -1.4401E-02 -3.0496E-03  1.6753E-02  3.3567E-02  4.7647E-02  6.2344E-02
  7.4553E-02  9.7005E-02  1.1360E-01  1.1705E-01  1.4609E-01  1.5370E-01
  3.2762E-01  4.0038E-01  4.1194E-01  4.4360E-01
  prteigrs : nnsclo,ikpt=   30   12 max resid (incl. the buffer)=  4.32935E-05
 Non-SCF case, kpt   13 (  0.42857  0.00000  0.00000), residuals and eigenvalues=
  2.73E-17  6.98E-17  5.34E-17  2.92E-17  2.45E-17  1.79E-17  7.24E-17  4.97E-17
  7.91E-17  7.66E-17  1.93E-17  3.50E-17  9.86E-17  1.99E-17  1.09E-17  3.15E-17
  3.15E-17  2.96E-17  5.37E-17  6.71E-17  9.00E-17  5.58E-17  5.52E-17  5.81E-17
  2.63E-14  2.17E-09  1.19E-08  1.52E-05
 -8.3195E-01 -8.1827E-01 -8.0658E-01 -7.9538E-01 -7.9474E-01 -7.9398E-01
 -2.2097E-01 -1.8325E-01 -1.1325E-01 -8.8520E-02 -8.2890E-02 -4.6007E-02
 -1.4370E-02 -5.0010E-03  1.6866E-02  3.5364E-02  4.8296E-02  5.9682E-02
  7.2294E-02  9.7361E-02  1.1313E-01  1.1909E-01  1.4398E-01  1.5380E-01
  3.3617E-01  3.9960E-01  4.1549E-01  4.4123E-01
  prteigrs : nnsclo,ikpt=   30   13 max resid (incl. the buffer)=  1.51576E-05
 Non-SCF case, kpt   14 (  0.46429  0.00000  0.00000), residuals and eigenvalues=
  5.71E-17  2.26E-17  2.87E-17  3.00E-17  3.83E-17  5.38E-17  5.74E-17  5.89E-17
  3.63E-17  3.86E-17  3.08E-17  3.61E-17  7.03E-17  6.93E-17  3.20E-17  5.02E-17
  2.51E-17  7.29E-17  1.54E-17  5.38E-17  5.17E-17  1.07E-17  4.24E-17  3.82E-17
  8.99E-14  5.58E-10  8.18E-08  1.03E-05
 -8.3113E-01 -8.1915E-01 -8.0653E-01 -7.9542E-01 -7.9478E-01 -7.9402E-01
 -2.2148E-01 -1.8192E-01 -1.1566E-01 -8.8909E-02 -8.2353E-02 -4.5978E-02
 -1.5662E-02 -8.1687E-03  1.5481E-02  3.7004E-02  4.3944E-02  5.7360E-02
  6.9311E-02  9.6569E-02  1.1130E-01  1.1986E-01  1.4608E-01  1.5356E-01
  3.4085E-01  3.9750E-01  4.1805E-01  4.3876E-01
  prteigrs : nnsclo,ikpt=   30   14 max resid (incl. the buffer)=  1.03301E-05
 Non-SCF case, kpt   15 (  0.50000  0.00000  0.00000), residuals and eigenvalues=
  5.68E-17  3.34E-17  2.31E-17  3.50E-17  6.56E-17  2.56E-17  3.25E-17  2.05E-17
  6.34E-17  3.82E-17  4.37E-17  6.02E-17  6.49E-17  1.83E-17  7.90E-17  1.58E-17
  1.50E-17  3.94E-17  2.76E-17  5.98E-17  1.08E-17  2.26E-17  3.49E-17  2.03E-17
  3.16E-14  3.90E-10  4.51E-09  1.11E-07
 -8.3077E-01 -8.1946E-01 -8.0648E-01 -7.9539E-01 -7.9476E-01 -7.9401E-01
 -2.2141E-01 -1.7956E-01 -1.1469E-01 -8.7139E-02 -8.1756E-02 -4.0988E-02
 -1.4207E-02 -7.5192E-03  1.7094E-02  4.1512E-02  4.2109E-02  5.8654E-02
  7.0764E-02  9.8583E-02  1.1346E-01  1.2260E-01  1.4817E-01  1.5679E-01
  3.4376E-01  3.9850E-01  4.1989E-01  4.3893E-01
  prteigrs : nnsclo,ikpt=   30   15 max resid (incl. the buffer)=  1.11368E-07
 Non-SCF case, kpt   16 (  0.47917  0.04167  0.00000), residuals and eigenvalues=
  5.20E-17  6.98E-17  3.53E-17  6.40E-17  7.49E-17  4.45E-17  4.35E-17  1.35E-17
  6.17E-17  2.86E-17  1.14E-17  2.90E-17  2.27E-17  2.34E-17  1.74E-17  3.81E-17
  4.21E-17  2.33E-17  2.94E-17  1.06E-17  4.19E-17  5.36E-17  4.59E-17  7.16E-17
  2.98E-14  3.24E-10  3.96E-09  5.43E-07
 -8.3069E-01 -8.1955E-01 -8.0652E-01 -7.9541E-01 -7.9478E-01 -7.9403E-01
 -2.2147E-01 -1.7974E-01 -1.1634E-01 -8.8677E-02 -8.1817E-02 -4.2557E-02
 -1.4354E-02 -7.8541E-03  1.5857E-02  4.1223E-02  4.1401E-02  5.7625E-02
  6.9678E-02  9.6851E-02  1.1301E-01  1.2196E-01  1.4670E-01  1.5438E-01
  3.4459E-01  3.9825E-01  4.1925E-01  4.3926E-01
  prteigrs : nnsclo,ikpt=   30   16 max resid (incl. the buffer)=  5.42696E-07
 Non-SCF case, kpt   17 (  0.45833  0.08333  0.00000), residuals and eigenvalues=
  5.73E-17  6.42E-17  3.62E-17  7.49E-17  8.80E-17  3.48E-17  4.55E-17  1.08E-17
  4.15E-17  1.85E-17  1.44E-17  2.59E-17  1.92E-17  2.02E-17  7.76E-17  8.47E-17
  5.92E-17  2.33E-17  1.46E-17  8.99E-18  5.25E-17  8.32E-18  4.39E-17  4.68E-17
  3.99E-14  2.37E-10  2.68E-09  5.41E-07
 -8.3040E-01 -8.1978E-01 -8.0660E-01 -7.9541E-01 -7.9476E-01 -7.9404E-01
 -2.2161E-01 -1.7826E-01 -1.1908E-01 -8.8377E-02 -8.0665E-02 -4.2335E-02
 -1.3492E-02 -7.1369E-03  1.4340E-02  4.1555E-02  4.1651E-02  5.8722E-02
  6.8510E-02  9.6182E-02  1.1192E-01  1.2294E-01  1.4651E-01  1.5460E-01
  3.4737E-01  3.9843E-01  4.1872E-01  4.4034E-01
  prteigrs : nnsclo,ikpt=   30   17 max resid (incl. the buffer)=  5.41078E-07
 Non-SCF case, kpt   18 (  0.43750  0.12500  0.00000), residuals and eigenvalues=
  5.22E-17  2.76E-17  3.62E-17  2.34E-17  1.97E-17  4.54E-17  2.77E-17  4.12E-17
  2.93E-17  1.54E-17  2.53E-17  2.49E-17  2.60E-17  3.86E-17  2.07E-17  4.96E-17
  9.88E-17  2.86E-17  3.07E-17  9.72E-17  6.73E-17  8.26E-17  4.99E-17  8.92E-17
  4.21E-12  3.64E-09  5.45E-08  1.18E-06
 -8.2990E-01 -8.2022E-01 -8.0674E-01 -7.9543E-01 -7.9470E-01 -7.9407E-01
 -2.2090E-01 -1.7654E-01 -1.2430E-01 -8.6528E-02 -8.0016E-02 -4.4112E-02
 -1.2728E-02 -8.2195E-03  1.1089E-02  4.0292E-02  4.1751E-02  6.0265E-02
  6.7278E-02  9.6872E-02  1.1027E-01  1.2410E-01  1.4663E-01  1.5524E-01
  3.5091E-01  3.9769E-01  4.1830E-01  4.4148E-01
  prteigrs : nnsclo,ikpt=   30   18 max resid (incl. the buffer)=  1.17724E-06
 Non-SCF case, kpt   19 (  0.41667  0.16667  0.00000), residuals and eigenvalues=
  5.46E-17  2.68E-17  5.46E-17  3.55E-17  3.45E-17  2.71E-17  1.45E-17  9.28E-17
  7.70E-17  1.13E-17  1.48E-17  3.09E-17  5.89E-17  6.38E-17  6.93E-17  6.74E-17
  2.83E-17  4.40E-17  9.50E-17  8.30E-17  5.49E-17  2.02E-17  2.63E-17  5.48E-17
  5.96E-13  2.85E-09  1.22E-08  6.25E-06
 -8.2919E-01 -8.2079E-01 -8.0686E-01 -7.9540E-01 -7.9462E-01 -7.9408E-01
 -2.2022E-01 -1.7288E-01 -1.2785E-01 -8.4653E-02 -7.7935E-02 -4.0654E-02
 -9.9336E-03 -4.9644E-03  9.1328E-03  4.4060E-02  4.4367E-02  6.3557E-02
  6.7151E-02  9.8169E-02  1.1191E-01  1.2838E-01  1.4739E-01  1.5769E-01
  3.5871E-01  3.9823E-01  4.1739E-01  4.4453E-01
  prteigrs : nnsclo,ikpt=   30   19 max resid (incl. the buffer)=  6.25221E-06
 Non-SCF case, kpt   20 (  0.39583  0.20833  0.00000), residuals and eigenvalues=
  4.78E-17  8.93E-17  3.94E-17  3.68E-17  1.98E-17  9.03E-17  2.05E-17  5.49E-17
  1.76E-17  1.14E-17  1.22E-17  1.21E-17  2.82E-17  3.31E-17  2.76E-17  2.04E-17
  6.44E-17  5.35E-17  9.49E-17  4.89E-17  4.38E-17  1.17E-17  3.36E-17  7.75E-17
  2.88E-11  5.13E-09  3.14E-08  1.57E-05
 -8.2835E-01 -8.2155E-01 -8.0698E-01 -7.9542E-01 -7.9455E-01 -7.9412E-01
 -2.2068E-01 -1.6823E-01 -1.3356E-01 -8.2946E-02 -7.7973E-02 -3.9177E-02
 -8.3328E-03 -4.2673E-03  6.7350E-03  4.4470E-02  4.5586E-02  6.2423E-02
  6.5155E-02  9.7013E-02  1.0751E-01  1.3320E-01  1.4631E-01  1.6034E-01
  3.6549E-01  3.9769E-01  4.1548E-01  4.4795E-01
  prteigrs : nnsclo,ikpt=   30   20 max resid (incl. the buffer)=  1.56604E-05
 Non-SCF case, kpt   21 (  0.37500  0.25000  0.00000), residuals and eigenvalues=
  2.75E-17  7.62E-17  5.52E-17  4.13E-17  3.91E-17  4.42E-17  2.88E-17  3.20E-17
  1.80E-17  1.50E-17  1.60E-17  1.00E-17  1.50E-17  4.25E-17  2.77E-17  4.06E-17
  3.37E-17  7.71E-17  6.06E-17  3.97E-17  3.02E-17  2.25E-17  5.10E-17  9.68E-17
  2.96E-12  1.17E-09  3.28E-08  1.08E-04
 -8.2732E-01 -8.2248E-01 -8.0706E-01 -7.9542E-01 -7.9444E-01 -7.9417E-01
 -2.1983E-01 -1.6260E-01 -1.3847E-01 -7.9276E-02 -7.6087E-02 -3.5782E-02
 -5.3728E-03 -1.9522E-03  5.2026E-03  4.7134E-02  4.7854E-02  6.0299E-02
  6.7533E-02  1.0118E-01  1.0738E-01  1.3681E-01  1.4836E-01  1.6251E-01
  3.7352E-01  3.9734E-01  4.1434E-01  4.5340E-01
  prteigrs : nnsclo,ikpt=   30   21 max resid (incl. the buffer)=  1.08006E-04
 Non-SCF case, kpt   22 (  0.35416  0.29166  0.00000), residuals and eigenvalues=
  5.55E-17  3.28E-17  2.55E-17  2.45E-17  7.81E-17  1.55E-17  8.33E-17  1.58E-17
  6.79E-17  8.52E-17  1.69E-17  1.27E-17  2.32E-17  1.55E-17  4.26E-17  3.71E-17
  8.48E-17  4.03E-17  5.90E-17  9.86E-17  2.13E-17  4.75E-17  3.18E-17  2.99E-17
  4.09E-11  1.21E-10  7.98E-09  6.94E-05
 -8.2616E-01 -8.2361E-01 -8.0714E-01 -7.9543E-01 -7.9436E-01 -7.9425E-01
 -2.2001E-01 -1.5710E-01 -1.4485E-01 -7.9441E-02 -7.6900E-02 -3.5206E-02
 -3.5238E-03 -2.1622E-03  3.7164E-03  4.7846E-02  4.8750E-02  5.7234E-02
  6.6767E-02  1.0154E-01  1.0526E-01  1.3792E-01  1.4349E-01  1.6152E-01
  3.8115E-01  3.9453E-01  4.1337E-01  4.5780E-01
  prteigrs : nnsclo,ikpt=   30   22 max resid (incl. the buffer)=  6.93683E-05
 Non-SCF case, kpt   23 (  0.33333  0.33333  0.00000), residuals and eigenvalues=
  7.71E-17  2.40E-17  5.74E-17  1.86E-17  2.13E-17  1.71E-17  3.76E-17  8.49E-17
  1.45E-17  2.31E-17  1.29E-17  6.31E-17  3.32E-17  5.59E-17  2.70E-17  1.20E-17
  2.91E-17  8.58E-17  3.87E-17  9.23E-17  7.34E-17  1.54E-17  2.60E-17  3.32E-17
  1.50E-10  1.84E-10  6.05E-09  1.25E-06
 -8.2487E-01 -8.2487E-01 -8.0715E-01 -7.9545E-01 -7.9429E-01 -7.9429E-01
 -2.1974E-01 -1.5037E-01 -1.5037E-01 -7.8298E-02 -7.8297E-02 -3.4512E-02
 -1.0116E-03 -1.0114E-03  2.5711E-03  5.2147E-02  5.2147E-02  5.5555E-02
  6.6834E-02  1.0080E-01  1.0080E-01  1.4165E-01  1.4165E-01  1.6194E-01
  3.8917E-01  3.8918E-01  4.1279E-01  4.6249E-01
  prteigrs : nnsclo,ikpt=   30   23 max resid (incl. the buffer)=  1.24529E-06
 Non-SCF case, kpt   24 (  0.31250  0.31250  0.00000), residuals and eigenvalues=
  4.79E-17  2.70E-17  2.03E-17  3.02E-17  2.23E-17  6.44E-17  1.62E-17  6.50E-17
  9.42E-17  6.34E-17  5.35E-17  2.02E-17  1.36E-17  2.98E-17  3.48E-17  8.93E-17
  3.93E-17  4.95E-17  6.30E-17  2.74E-17  4.54E-17  8.81E-17  1.25E-17  3.83E-17
  1.22E-11  2.60E-10  2.41E-09  1.37E-05
 -8.2628E-01 -8.2349E-01 -8.0715E-01 -7.9543E-01 -7.9439E-01 -7.9423E-01
 -2.2020E-01 -1.5742E-01 -1.4410E-01 -8.0009E-02 -7.8089E-02 -3.5741E-02
 -2.9593E-03 -2.5750E-03  3.3411E-03  4.7397E-02  5.0116E-02  5.7754E-02
  6.5093E-02  9.8002E-02  1.0455E-01  1.3805E-01  1.4148E-01  1.6117E-01
  3.8123E-01  3.9473E-01  4.1303E-01  4.5982E-01
  prteigrs : nnsclo,ikpt=   30   24 max resid (incl. the buffer)=  1.37088E-05
 Non-SCF case, kpt   25 (  0.29166  0.29166  0.00000), residuals and eigenvalues=
  9.77E-17  3.01E-17  6.90E-17  2.81E-17  2.93E-17  3.19E-17  7.41E-17  4.44E-17
  8.83E-17  3.23E-17  9.66E-18  7.69E-17  8.16E-17  3.13E-17  2.00E-17  3.00E-17
  3.55E-17  5.88E-17  7.88E-17  2.54E-17  8.08E-17  7.75E-17  2.66E-17  7.40E-17
  3.01E-10  1.31E-08  2.86E-07  7.70E-06
 -8.2782E-01 -8.2202E-01 -8.0712E-01 -7.9542E-01 -7.9448E-01 -7.9417E-01
 -2.2039E-01 -1.6377E-01 -1.3879E-01 -8.1301E-02 -7.7390E-02 -3.8674E-02
 -4.6387E-03 -3.6062E-03  4.2094E-03  4.3626E-02  4.7629E-02  5.8912E-02
  6.6677E-02  9.6200E-02  1.0705E-01  1.3316E-01  1.4123E-01  1.6000E-01
  3.7057E-01  3.9925E-01  4.1315E-01  4.5581E-01
  prteigrs : nnsclo,ikpt=   30   25 max resid (incl. the buffer)=  7.69873E-06
 Non-SCF case, kpt   26 (  0.27083  0.27083  0.00000), residuals and eigenvalues=
  7.17E-17  6.33E-17  2.49E-17  2.57E-17  2.27E-17  5.10E-17  4.00E-17  1.77E-17
  1.94E-17  5.09E-17  4.74E-17  2.25E-17  1.76E-17  7.48E-17  9.41E-17  5.77E-17
  3.75E-17  2.28E-17  2.58E-17  8.62E-17  5.59E-17  2.54E-17  6.99E-17  4.02E-17
  1.70E-12  4.91E-09  1.03E-08  3.83E-06
 -8.2936E-01 -8.2048E-01 -8.0706E-01 -7.9539E-01 -7.9455E-01 -7.9407E-01
 -2.2042E-01 -1.6949E-01 -1.3192E-01 -8.2040E-02 -7.6902E-02 -4.0889E-02
 -5.5950E-03 -2.8583E-03  6.6746E-03  4.4231E-02  4.6118E-02  6.1809E-02
  7.0325E-02  9.5277E-02  1.0720E-01  1.3035E-01  1.4729E-01  1.6156E-01
  3.5989E-01  4.0284E-01  4.1268E-01  4.5121E-01
  prteigrs : nnsclo,ikpt=   30   26 max resid (incl. the buffer)=  3.82595E-06
 Non-SCF case, kpt   27 (  0.25000  0.25000  0.00000), residuals and eigenvalues=
  4.55E-17  2.70E-17  7.13E-17  2.87E-17  5.07E-17  8.41E-17  8.43E-17  1.62E-17
  1.26E-17  1.63E-17  3.35E-17  6.59E-17  3.64E-17  2.84E-17  4.15E-17  5.80E-17
  2.07E-17  1.82E-17  2.51E-17  2.65E-17  6.28E-17  2.94E-17  9.63E-17  6.07E-17
  5.14E-12  5.47E-09  2.19E-08  1.41E-05
 -8.3096E-01 -8.1892E-01 -8.0704E-01 -7.9538E-01 -7.9460E-01 -7.9400E-01
 -2.2018E-01 -1.7591E-01 -1.2610E-01 -8.4260E-02 -7.7821E-02 -4.4657E-02
 -7.4337E-03 -2.0934E-03  8.2263E-03  4.2933E-02  4.3481E-02  6.4674E-02
  7.2557E-02  9.3574E-02  1.0754E-01  1.2550E-01  1.4615E-01  1.5775E-01
  3.4769E-01  4.0490E-01  4.1148E-01  4.4712E-01
  prteigrs : nnsclo,ikpt=   30   27 max resid (incl. the buffer)=  1.41041E-05
 Non-SCF case, kpt   28 (  0.22916  0.22916  0.00000), residuals and eigenvalues=
  4.17E-17  3.71E-17  6.49E-17  6.61E-17  4.90E-17  2.80E-17  1.17E-17  2.39E-17
  8.27E-17  9.12E-17  5.41E-17  2.35E-17  6.78E-17  2.73E-17  4.63E-17  2.99E-17
  2.12E-17  6.34E-17  4.07E-17  4.05E-17  7.71E-17  1.80E-17  6.99E-17  3.96E-17
  4.67E-13  1.09E-09  4.80E-09  6.95E-06
 -8.3253E-01 -8.1738E-01 -8.0700E-01 -7.9531E-01 -7.9460E-01 -7.9392E-01
 -2.1956E-01 -1.8185E-01 -1.1915E-01 -8.6342E-02 -7.9081E-02 -4.8385E-02
 -8.7085E-03  2.6311E-04  1.0574E-02  4.0947E-02  4.3988E-02  6.9256E-02
  7.8214E-02  9.4360E-02  1.0881E-01  1.2166E-01  1.4461E-01  1.5602E-01
  3.3601E-01  4.0616E-01  4.0932E-01  4.4299E-01
  prteigrs : nnsclo,ikpt=   30   28 max resid (incl. the buffer)=  6.95424E-06
 Non-SCF case, kpt   29 (  0.20833  0.20833  0.00000), residuals and eigenvalues=
  3.11E-17  4.28E-17  4.60E-17  6.05E-17  3.86E-17  3.74E-17  1.39E-17  1.81E-17
  8.26E-17  1.57E-17  8.28E-17  3.68E-17  1.36E-17  3.98E-17  5.15E-17  8.90E-17
  3.47E-17  4.46E-17  3.54E-17  3.97E-17  8.67E-17  4.29E-17  7.55E-17  2.94E-17
  8.33E-15  2.66E-08  3.23E-08  9.67E-05
 -8.3410E-01 -8.1584E-01 -8.0699E-01 -7.9526E-01 -7.9459E-01 -7.9382E-01
 -2.1886E-01 -1.8645E-01 -1.1263E-01 -8.8200E-02 -7.8630E-02 -5.2331E-02
 -9.8006E-03  2.4868E-03  1.3277E-02  3.9847E-02  4.1746E-02  7.2867E-02
  7.9068E-02  9.5779E-02  1.0973E-01  1.1888E-01  1.4614E-01  1.5410E-01
  3.2286E-01  4.0614E-01  4.0687E-01  4.4113E-01
  prteigrs : nnsclo,ikpt=   30   29 max resid (incl. the buffer)=  9.67475E-05
 Non-SCF case, kpt   30 (  0.18750  0.18750  0.00000), residuals and eigenvalues=
  9.34E-17  3.06E-17  3.96E-17  3.44E-17  2.12E-17  2.06E-17  2.42E-17  1.70E-17
  6.01E-17  2.30E-17  2.91E-17  2.74E-17  3.63E-17  3.93E-17  3.25E-17  7.23E-17
  2.88E-17  3.49E-17  3.12E-17  7.01E-17  6.63E-17  2.91E-17  5.11E-17  8.86E-17
  3.09E-15  1.26E-09  3.91E-09  6.67E-06
 -8.3556E-01 -8.1434E-01 -8.0700E-01 -7.9511E-01 -7.9451E-01 -7.9371E-01
 -2.1743E-01 -1.9049E-01 -1.0397E-01 -8.6712E-02 -7.6766E-02 -5.4579E-02
 -8.6707E-03  5.8035E-03  1.8151E-02  4.2285E-02  4.2690E-02  7.7890E-02
  8.5083E-02  9.6904E-02  1.1218E-01  1.1894E-01  1.4976E-01  1.5941E-01
  3.1107E-01  4.0530E-01  4.0628E-01  4.3877E-01
  prteigrs : nnsclo,ikpt=   30   30 max resid (incl. the buffer)=  6.66663E-06
 Non-SCF case, kpt   31 (  0.16667  0.16667  0.00000), residuals and eigenvalues=
  4.69E-17  8.46E-17  4.61E-17  2.66E-17  2.27E-17  1.91E-17  2.57E-17  9.32E-17
  1.25E-17  6.54E-17  1.41E-17  1.59E-17  5.20E-17  1.59E-17  2.81E-17  4.33E-17
  3.87E-17  6.15E-17  6.62E-17  5.55E-17  3.61E-17  3.12E-17  6.99E-17  7.37E-17
  4.92E-16  2.06E-09  3.67E-10  2.24E-06
 -8.3700E-01 -8.1300E-01 -8.0706E-01 -7.9504E-01 -7.9447E-01 -7.9366E-01
 -2.1759E-01 -1.9553E-01 -9.9848E-02 -9.0629E-02 -7.8355E-02 -6.0298E-02
 -9.4258E-03  4.5897E-03  1.6793E-02  3.8742E-02  4.3926E-02  7.9192E-02
  8.5698E-02  9.7489E-02  1.0940E-01  1.1408E-01  1.4914E-01  1.5358E-01
  2.9670E-01  4.0233E-01  4.0530E-01  4.3649E-01
  prteigrs : nnsclo,ikpt=   30   31 max resid (incl. the buffer)=  2.24235E-06
 Non-SCF case, kpt   32 (  0.14583  0.14583  0.00000), residuals and eigenvalues=
  7.24E-17  2.05E-17  2.74E-17  3.29E-17  5.81E-17  2.93E-17  1.21E-17  2.96E-17
  1.89E-17  2.04E-17  1.14E-17  2.82E-17  5.09E-17  5.26E-17  4.25E-17  4.48E-17
  5.36E-17  8.81E-17  2.96E-17  9.47E-17  9.35E-17  9.81E-17  3.60E-17  5.69E-17
  2.60E-16  5.03E-10  1.15E-08  5.76E-07
 -8.3828E-01 -8.1174E-01 -8.0711E-01 -7.9486E-01 -7.9436E-01 -7.9356E-01
 -2.1597E-01 -1.9892E-01 -9.4593E-02 -9.0364E-02 -7.6345E-02 -6.3640E-02
 -7.6103E-03  5.5492E-03  1.7026E-02  3.7090E-02  5.0644E-02  8.2708E-02
  9.0615E-02  1.0357E-01  1.1131E-01  1.1438E-01  1.4991E-01  1.5340E-01
  2.8382E-01  4.0141E-01  4.0544E-01  4.3517E-01
  prteigrs : nnsclo,ikpt=   30   32 max resid (incl. the buffer)=  5.75594E-07
 Non-SCF case, kpt   33 (  0.12500  0.12500  0.00000), residuals and eigenvalues=
  2.20E-17  4.62E-17  8.06E-17  6.88E-17  5.04E-17  1.87E-17  3.47E-17  4.98E-17
  2.76E-17  5.46E-17  2.00E-17  3.58E-17  2.98E-17  2.97E-17  4.02E-17  2.28E-17
  1.43E-17  6.78E-17  3.27E-17  1.14E-17  6.31E-17  7.84E-17  7.51E-17  7.70E-17
  2.68E-17  4.12E-10  1.77E-08  1.24E-06
 -8.3944E-01 -8.1064E-01 -8.0718E-01 -7.9469E-01 -7.9423E-01 -7.9349E-01
 -2.1466E-01 -2.0232E-01 -9.0674E-02 -8.9589E-02 -7.6461E-02 -6.6860E-02
 -6.7557E-03  5.8384E-03  1.6257E-02  3.5527E-02  5.8901E-02  8.5526E-02
  9.4744E-02  1.0413E-01  1.1237E-01  1.1437E-01  1.4692E-01  1.5185E-01
  2.7175E-01  4.0126E-01  4.0605E-01  4.3376E-01
  prteigrs : nnsclo,ikpt=   30   33 max resid (incl. the buffer)=  1.23578E-06
 Non-SCF case, kpt   34 (  0.10417  0.10417  0.00000), residuals and eigenvalues=
  7.88E-17  8.12E-17  7.98E-17  2.00E-17  8.82E-17  3.84E-17  9.34E-17  1.71E-17
  1.54E-17  3.16E-17  2.81E-17  2.57E-17  3.35E-17  2.40E-17  2.71E-17  4.43E-17
  7.06E-17  2.53E-17  4.06E-17  4.63E-17  7.14E-17  2.55E-17  4.67E-17  2.90E-17
  3.28E-15  7.50E-09  6.07E-07  3.48E-05
 -8.4045E-01 -8.0969E-01 -8.0728E-01 -7.9451E-01 -7.9411E-01 -7.9345E-01
 -2.1374E-01 -2.0610E-01 -9.1003E-02 -8.7219E-02 -7.8698E-02 -6.9979E-02
 -5.8846E-03  5.5725E-03  1.5292E-02  3.3411E-02  6.5729E-02  8.6664E-02
  9.7870E-02  1.0492E-01  1.1205E-01  1.1365E-01  1.4522E-01  1.4842E-01
  2.5899E-01  4.0275E-01  4.0714E-01  4.3296E-01
  prteigrs : nnsclo,ikpt=   30   34 max resid (incl. the buffer)=  3.48045E-05
 Non-SCF case, kpt   35 (  0.08333  0.08333  0.00000), residuals and eigenvalues=
  2.40E-17  6.33E-17  7.13E-17  1.69E-17  2.56E-17  2.32E-17  3.81E-17  1.20E-17
  2.03E-17  4.92E-17  1.11E-17  1.81E-17  6.80E-17  9.15E-17  4.64E-17  3.37E-17
  2.91E-17  4.84E-17  6.07E-17  4.23E-17  8.09E-17  7.31E-17  2.05E-17  3.59E-17
  8.13E-17  5.78E-09  6.24E-08  3.68E-06
 -8.4129E-01 -8.0888E-01 -8.0733E-01 -7.9429E-01 -7.9398E-01 -7.9339E-01
 -2.1244E-01 -2.0739E-01 -9.0554E-02 -8.2940E-02 -7.7527E-02 -7.1470E-02
 -3.3069E-03  5.7117E-03  1.7674E-02  3.2145E-02  7.8050E-02  9.0564E-02
  1.0229E-01  1.0619E-01  1.1549E-01  1.1593E-01  1.4499E-01  1.4983E-01
  2.4852E-01  4.0546E-01  4.0909E-01  4.3246E-01
  prteigrs : nnsclo,ikpt=   30   35 max resid (incl. the buffer)=  3.68327E-06
 Non-SCF case, kpt   36 (  0.06250  0.06250  0.00000), residuals and eigenvalues=
  3.86E-17  4.15E-17  3.94E-17  1.81E-17  7.97E-17  1.67E-17  3.51E-17  3.52E-17
  1.94E-17  6.52E-17  1.78E-17  9.74E-17  2.03E-17  2.98E-17  4.63E-17  5.00E-17
  7.22E-17  4.32E-17  6.57E-17  7.62E-17  7.70E-17  1.99E-17  2.02E-17  1.63E-17
  8.68E-17  8.08E-08  7.46E-07  7.87E-06
 -8.4195E-01 -8.0827E-01 -8.0742E-01 -7.9411E-01 -7.9389E-01 -7.9339E-01
 -2.1168E-01 -2.0923E-01 -9.0747E-02 -8.0717E-02 -7.8706E-02 -7.3320E-02
 -1.4336E-03  4.7871E-03  1.7503E-02  2.8599E-02  8.5457E-02  9.1226E-02
  1.0638E-01  1.0689E-01  1.1480E-01  1.1626E-01  1.4337E-01  1.4781E-01
  2.3815E-01  4.0838E-01  4.1076E-01  4.3230E-01
  prteigrs : nnsclo,ikpt=   30   36 max resid (incl. the buffer)=  7.86845E-06
 Non-SCF case, kpt   37 (  0.04167  0.04167  0.00000), residuals and eigenvalues=
  6.90E-17  6.57E-17  2.97E-17  2.81E-17  1.72E-17  3.55E-17  8.96E-17  2.73E-17
  3.74E-17  3.07E-17  3.02E-17  5.29E-17  8.96E-17  5.48E-17  3.07E-17  3.88E-17
  5.87E-17  4.75E-17  5.19E-17  9.99E-17  2.95E-17  8.92E-17  2.61E-17  1.61E-17
  9.05E-17  1.96E-07  3.62E-07  4.83E-06
 -8.4244E-01 -8.0784E-01 -8.0746E-01 -7.9395E-01 -7.9382E-01 -7.9340E-01
 -2.1114E-01 -2.1072E-01 -9.0800E-02 -7.9020E-02 -7.7711E-02 -7.4881E-02
  4.9296E-04  4.0464E-03  1.7933E-02  2.5846E-02  9.0970E-02  9.1748E-02
  1.0738E-01  1.0992E-01  1.1537E-01  1.1672E-01  1.4306E-01  1.4625E-01
  2.2968E-01  4.1160E-01  4.1243E-01  4.3292E-01
  prteigrs : nnsclo,ikpt=   30   37 max resid (incl. the buffer)=  4.82859E-06
 Non-SCF case, kpt   38 (  0.02083  0.02083  0.00000), residuals and eigenvalues=
  1.57E-17  8.56E-17  6.79E-17  3.29E-17  4.11E-17  1.77E-17  9.60E-17  6.08E-17
  2.65E-17  6.08E-17  1.89E-17  1.27E-17  5.10E-17  6.80E-17  5.66E-17  4.43E-17
  5.09E-17  8.86E-17  1.86E-17  6.01E-17  3.68E-17  1.89E-17  5.65E-17  4.12E-17
  2.70E-17  9.14E-07  3.54E-06  1.12E-06
 -8.4276E-01 -8.0759E-01 -8.0749E-01 -7.9382E-01 -7.9377E-01 -7.9341E-01
 -2.1054E-01 -2.1023E-01 -9.1276E-02 -7.8508E-02 -7.7013E-02 -7.6639E-02
  2.5017E-03  3.8270E-03  1.7162E-02  2.3328E-02  9.4510E-02  9.5172E-02
  1.0986E-01  1.1104E-01  1.1520E-01  1.1604E-01  1.4175E-01  1.4239E-01
  2.2337E-01  4.1359E-01  4.1377E-01  4.3397E-01
  prteigrs : nnsclo,ikpt=   30   38 max resid (incl. the buffer)=  3.53543E-06
 Non-SCF case, kpt   39 (  0.00000  0.00000  0.00000), residuals and eigenvalues=
  9.51E-17  5.74E-17  4.93E-17  5.81E-17  4.20E-17  4.13E-17  1.67E-17  2.32E-17
  1.58E-17  1.44E-17  1.52E-17  2.80E-17  7.90E-17  5.09E-17  4.82E-17  8.22E-17
  9.79E-17  5.97E-17  2.52E-17  1.33E-17  4.53E-17  3.43E-17  5.26E-17  6.49E-17
  6.18E-17  1.19E-09  1.95E-05  5.07E-08
 -8.4285E-01 -8.0750E-01 -8.0750E-01 -7.9374E-01 -7.9374E-01 -7.9343E-01
 -2.1007E-01 -2.1007E-01 -9.1131E-02 -7.6825E-02 -7.5900E-02 -7.5900E-02
  4.1764E-03  4.1764E-03  1.7339E-02  2.2700E-02  9.5767E-02  9.5767E-02
  1.1165E-01  1.1418E-01  1.1632E-01  1.1632E-01  1.4366E-01  1.4366E-01
  2.2139E-01  4.1485E-01  4.1499E-01  4.3466E-01
  prteigrs : nnsclo,ikpt=   30   39 max resid (incl. the buffer)=  1.94983E-05
 Non-SCF case, kpt   40 (  0.00000  0.00000  0.04545), residuals and eigenvalues=
  4.75E-17  3.23E-17  2.90E-17  6.56E-17  7.14E-17  3.15E-17  4.59E-17  5.49E-17
  4.13E-17  6.23E-17  1.57E-17  4.98E-17  2.56E-17  5.00E-17  3.50E-17  9.26E-17
  1.78E-17  5.46E-17  1.56E-17  1.52E-17  6.81E-17  2.25E-17  8.90E-17  7.01E-17
  4.54E-17  6.40E-07  2.59E-05  3.03E-08
 -8.4276E-01 -8.0958E-01 -8.0553E-01 -7.9381E-01 -7.9373E-01 -7.9344E-01
 -2.1735E-01 -2.0350E-01 -9.1766E-02 -8.1531E-02 -7.7891E-02 -7.4527E-02
 -6.2704E-04  6.7320E-03  1.6443E-02  2.3521E-02  9.4523E-02  9.4541E-02
  1.0598E-01  1.1190E-01  1.1433E-01  1.1694E-01  1.3935E-01  1.4321E-01
  2.2341E-01  4.0584E-01  4.2299E-01  4.3384E-01
  prteigrs : nnsclo,ikpt=   30   40 max resid (incl. the buffer)=  2.59376E-05
 Non-SCF case, kpt   41 (  0.00000  0.00000  0.09091), residuals and eigenvalues=
  7.56E-17  2.58E-17  2.73E-17  9.57E-17  3.43E-17  2.52E-17  4.64E-17  5.73E-17
  1.24E-17  1.42E-17  8.28E-17  2.79E-17  3.14E-17  4.38E-17  4.19E-17  5.28E-17
  9.84E-17  1.10E-17  4.36E-17  4.32E-17  5.42E-17  1.58E-17  4.49E-17  6.60E-17
  2.47E-17  3.84E-08  2.35E-06  9.04E-06
 -8.4240E-01 -8.1173E-01 -8.0368E-01 -7.9380E-01 -7.9369E-01 -7.9343E-01
 -2.2210E-01 -1.9644E-01 -9.2773E-02 -8.1718E-02 -7.7964E-02 -7.0764E-02
 -2.3855E-03  1.0150E-02  1.6274E-02  2.7942E-02  9.2703E-02  9.3451E-02
  1.0479E-01  1.1463E-01  1.1634E-01  1.2047E-01  1.4345E-01  1.4637E-01
  2.2995E-01  3.9870E-01  4.2818E-01  4.3352E-01
  prteigrs : nnsclo,ikpt=   30   41 max resid (incl. the buffer)=  9.04186E-06
 Non-SCF case, kpt   42 (  0.00000  0.00000  0.13636), residuals and eigenvalues=
  3.47E-17  3.77E-17  2.14E-17  7.79E-17  6.97E-17  1.86E-17  4.73E-17  2.45E-17
  2.54E-17  4.75E-17  9.82E-18  2.89E-17  2.01E-17  3.24E-17  3.24E-17  3.16E-17
  2.36E-17  1.74E-17  3.54E-17  1.79E-17  2.01E-17  1.37E-17  7.33E-17  4.84E-17
  1.93E-17  1.35E-09  4.44E-07  3.05E-06
 -8.4193E-01 -8.1396E-01 -8.0196E-01 -7.9387E-01 -7.9366E-01 -7.9348E-01
 -2.2803E-01 -1.9157E-01 -9.5149E-02 -8.1682E-02 -7.8785E-02 -6.8629E-02
 -5.2133E-03  1.3933E-02  1.6704E-02  3.0206E-02  8.6352E-02  8.7942E-02
  9.3475E-02  1.0456E-01  1.1350E-01  1.1968E-01  1.4426E-01  1.5195E-01
  2.3849E-01  3.9217E-01  4.2722E-01  4.3033E-01
  prteigrs : nnsclo,ikpt=   30   42 max resid (incl. the buffer)=  3.05182E-06
 Non-SCF case, kpt   43 (  0.00000  0.00000  0.18182), residuals and eigenvalues=
  3.60E-17  5.58E-17  2.08E-17  1.48E-17  9.04E-17  1.81E-17  4.43E-17  2.12E-17
  2.02E-17  4.81E-17  7.91E-17  2.61E-17  2.06E-17  2.96E-17  3.40E-17  2.51E-17
  9.92E-17  1.67E-17  3.78E-17  6.54E-17  1.39E-17  2.01E-17  6.95E-17  6.21E-17
  3.95E-17  7.77E-11  4.97E-08  3.06E-07
 -8.4122E-01 -8.1621E-01 -8.0041E-01 -7.9389E-01 -7.9362E-01 -7.9350E-01
 -2.3267E-01 -1.8405E-01 -9.7543E-02 -8.3682E-02 -7.9748E-02 -6.5137E-02
 -6.8375E-03  1.3652E-02  1.9407E-02  3.4113E-02  8.3594E-02  8.4328E-02
  8.6239E-02  1.0263E-01  1.1281E-01  1.2242E-01  1.4600E-01  1.5435E-01
  2.4932E-01  3.8710E-01  4.2322E-01  4.2626E-01
  prteigrs : nnsclo,ikpt=   30   43 max resid (incl. the buffer)=  3.05836E-07
 Non-SCF case, kpt   44 (  0.00000  0.00000  0.22727), residuals and eigenvalues=
  7.50E-17  2.83E-17  5.26E-17  3.96E-17  1.47E-17  2.71E-17  5.36E-17  3.17E-17
  2.22E-17  2.63E-17  1.16E-17  3.01E-17  1.99E-17  7.75E-17  3.83E-17  2.16E-17
  3.69E-17  6.33E-17  5.89E-17  3.40E-17  2.92E-17  1.65E-17  4.06E-17  9.46E-17
  4.01E-17  7.10E-12  1.34E-08  4.39E-07
 -8.4035E-01 -8.1850E-01 -7.9903E-01 -7.9395E-01 -7.9358E-01 -7.9353E-01
 -2.3743E-01 -1.7637E-01 -1.0217E-01 -8.6062E-02 -8.1384E-02 -6.1873E-02
 -1.1182E-02  1.2850E-02  2.0630E-02  3.8362E-02  7.5163E-02  7.8570E-02
  7.8722E-02  9.7092E-02  1.1137E-01  1.2280E-01  1.4770E-01  1.5376E-01
  2.6079E-01  3.8333E-01  4.1861E-01  4.1958E-01
  prteigrs : nnsclo,ikpt=   30   44 max resid (incl. the buffer)=  4.38901E-07
 Non-SCF case, kpt   45 (  0.00000  0.00000  0.27273), residuals and eigenvalues=
  4.33E-17  2.32E-17  2.39E-17  2.42E-17  1.73E-17  2.09E-17  3.99E-17  3.52E-17
  9.14E-17  3.40E-17  4.86E-17  2.51E-17  1.87E-17  1.86E-17  5.28E-17  3.75E-17
  8.55E-17  4.69E-17  5.91E-17  6.50E-17  6.33E-17  2.57E-17  5.59E-17  6.58E-17
  6.70E-17  1.42E-12  1.63E-10  3.92E-09
 -8.3924E-01 -8.2075E-01 -7.9778E-01 -7.9393E-01 -7.9356E-01 -7.9351E-01
 -2.4069E-01 -1.6735E-01 -1.0495E-01 -8.6878E-02 -8.2644E-02 -5.5828E-02
 -8.9951E-03  1.4233E-02  2.3596E-02  4.4252E-02  6.9938E-02  7.4438E-02
  7.8628E-02  9.5217E-02  1.1048E-01  1.3011E-01  1.5173E-01  1.5647E-01
  2.7502E-01  3.8046E-01  4.1422E-01  4.1625E-01
  prteigrs : nnsclo,ikpt=   30   45 max resid (incl. the buffer)=  3.92153E-09
 Non-SCF case, kpt   46 (  0.00000  0.00000  0.31818), residuals and eigenvalues=
  4.42E-17  3.21E-17  2.62E-17  2.57E-17  1.83E-17  2.26E-17  4.23E-17  4.62E-17
  6.13E-17  3.09E-17  3.88E-17  2.48E-17  1.97E-17  1.52E-17  5.74E-17  5.34E-17
  2.65E-17  3.46E-17  5.96E-17  4.01E-17  4.00E-17  2.12E-17  4.44E-17  5.72E-17
  3.62E-17  4.50E-13  1.57E-11  9.66E-10
 -8.3798E-01 -8.2299E-01 -7.9678E-01 -7.9392E-01 -7.9359E-01 -7.9348E-01
 -2.4355E-01 -1.5943E-01 -1.0852E-01 -8.7882E-02 -8.4552E-02 -5.2437E-02
 -8.5636E-03  1.3685E-02  2.3875E-02  4.9443E-02  6.4691E-02  6.9847E-02
  7.8463E-02  9.1873E-02  1.0908E-01  1.3378E-01  1.5372E-01  1.5633E-01
  2.8898E-01  3.7746E-01  4.0974E-01  4.1161E-01
  prteigrs : nnsclo,ikpt=   30   46 max resid (incl. the buffer)=  9.65793E-10
 Non-SCF case, kpt   47 (  0.00000  0.00000  0.36364), residuals and eigenvalues=
  4.27E-17  4.13E-17  2.78E-17  2.77E-17  9.78E-17  2.23E-17  4.46E-17  5.59E-17
  4.09E-17  3.10E-17  3.86E-17  2.16E-17  2.14E-17  1.14E-17  5.51E-17  5.62E-17
  2.32E-17  2.42E-17  6.34E-17  2.89E-17  2.99E-17  2.33E-17  6.86E-17  4.32E-17
  3.80E-16  1.86E-12  3.39E-11  1.72E-09
 -8.3656E-01 -8.2519E-01 -7.9598E-01 -7.9390E-01 -7.9362E-01 -7.9345E-01
 -2.4577E-01 -1.5154E-01 -1.1253E-01 -8.8478E-02 -8.6464E-02 -4.9359E-02
 -7.4211E-03  1.2593E-02  2.3459E-02  5.4638E-02  6.1232E-02  6.5469E-02
  7.9112E-02  8.8101E-02  1.0763E-01  1.3770E-01  1.5527E-01  1.5544E-01
  3.0333E-01  3.7260E-01  4.0587E-01  4.0963E-01
  prteigrs : nnsclo,ikpt=   30   47 max resid (incl. the buffer)=  1.71553E-09
 Non-SCF case, kpt   48 (  0.00000  0.00000  0.40909), residuals and eigenvalues=
  8.09E-17  4.83E-17  2.18E-17  4.51E-17  2.20E-17  4.15E-17  2.72E-17  2.79E-17
  2.99E-17  1.33E-17  1.56E-17  3.61E-17  2.10E-17  1.75E-17  5.23E-17  2.31E-17
  2.49E-17  5.86E-17  7.08E-17  6.97E-18  1.04E-17  9.03E-17  1.95E-17  4.76E-17
  1.74E-14  1.07E-11  2.47E-09  8.61E-07
 -8.3493E-01 -8.2731E-01 -7.9534E-01 -7.9387E-01 -7.9367E-01 -7.9341E-01
 -2.4518E-01 -1.4263E-01 -1.1671E-01 -8.9951E-02 -8.7342E-02 -4.3171E-02
 -1.5010E-03  1.2021E-02  2.6968E-02  6.0619E-02  6.4493E-02  6.6985E-02
  8.6467E-02  9.1447E-02  1.0547E-01  1.4165E-01  1.5485E-01  1.6305E-01
  3.2072E-01  3.6816E-01  4.0295E-01  4.1265E-01
  prteigrs : nnsclo,ikpt=   30   48 max resid (incl. the buffer)=  8.60658E-07
 Non-SCF case, kpt   49 (  0.00000  0.00000  0.45455), residuals and eigenvalues=
  3.47E-17  1.89E-17  1.99E-17  3.19E-17  5.25E-17  5.45E-17  2.11E-17  4.09E-17
  7.40E-17  1.50E-17  1.79E-17  5.93E-17  3.88E-17  2.53E-17  5.88E-17  5.72E-17
  2.94E-17  4.06E-17  2.77E-17  5.23E-17  8.03E-17  5.11E-17  4.03E-17  2.62E-17
  1.85E-13  6.77E-12  2.40E-08  7.55E-06
 -8.3323E-01 -8.2942E-01 -7.9501E-01 -7.9385E-01 -7.9378E-01 -7.9344E-01
 -2.4710E-01 -1.3626E-01 -1.2333E-01 -9.2459E-02 -9.2290E-02 -4.3818E-02
 -3.0831E-04  5.6291E-03  2.4673E-02  5.3780E-02  5.7923E-02  7.1555E-02
  8.3079E-02  8.6386E-02  9.9868E-02  1.4071E-01  1.4951E-01  1.6013E-01
  3.3000E-01  3.5564E-01  4.0090E-01  4.1733E-01
  prteigrs : nnsclo,ikpt=   30   49 max resid (incl. the buffer)=  7.54606E-06
 Non-SCF case, kpt   50 (  0.00000  0.00000  0.50000), residuals and eigenvalues=
  3.74E-17  2.78E-17  1.73E-17  9.85E-17  9.61E-17  5.25E-17  1.45E-17  5.31E-17
  1.83E-17  1.65E-17  3.20E-17  5.95E-17  2.25E-17  5.80E-17  2.71E-17  4.37E-17
  3.81E-17  7.57E-17  2.52E-17  2.51E-17  4.32E-17  3.90E-17  6.58E-17  4.14E-17
  4.68E-12  1.20E-11  4.25E-08  1.12E-10
 -8.3138E-01 -8.3138E-01 -7.9490E-01 -7.9382E-01 -7.9382E-01 -7.9344E-01
 -2.4743E-01 -1.2955E-01 -1.2955E-01 -9.3255E-02 -9.3255E-02 -4.3353E-02
  2.4713E-03  2.4713E-03  2.4452E-02  5.5320E-02  5.5320E-02  7.7324E-02
  7.7324E-02  8.6899E-02  9.9276E-02  1.4392E-01  1.4392E-01  1.6035E-01
  3.4332E-01  3.4332E-01  4.0027E-01  4.2507E-01
  prteigrs : nnsclo,ikpt=   30   50 max resid (incl. the buffer)=  4.25355E-08
 Non-SCF case, kpt   51 (  0.03571  0.00000  0.50000), residuals and eigenvalues=
  2.02E-17  1.47E-17  4.84E-17  5.32E-17  5.51E-17  2.95E-17  6.10E-17  5.16E-17
  1.92E-17  1.01E-17  1.27E-17  3.39E-17  2.23E-17  9.69E-17  4.00E-17  2.56E-17
  4.64E-17  3.48E-17  2.95E-17  2.27E-17  9.13E-18  4.99E-17  7.18E-17  8.22E-17
  6.67E-12  2.10E-12  1.40E-07  3.93E-07
 -8.3136E-01 -8.3130E-01 -7.9491E-01 -7.9396E-01 -7.9384E-01 -7.9345E-01
 -2.4743E-01 -1.3017E-01 -1.2979E-01 -9.3032E-02 -9.2937E-02 -4.4040E-02
  1.3945E-03  2.2516E-03  2.4259E-02  5.4987E-02  5.5137E-02  7.4969E-02
  7.7649E-02  8.6387E-02  9.8748E-02  1.4329E-01  1.4365E-01  1.5899E-01
  3.4343E-01  3.4370E-01  4.0061E-01  4.2499E-01
  prteigrs : nnsclo,ikpt=   30   51 max resid (incl. the buffer)=  3.93328E-07
 Non-SCF case, kpt   52 (  0.07143  0.00000  0.50000), residuals and eigenvalues=
  6.37E-17  6.52E-17  2.16E-17  3.27E-17  2.38E-17  2.74E-17  3.37E-17  1.66E-17
  3.09E-17  3.38E-17  9.75E-17  3.72E-17  1.25E-17  3.11E-17  3.32E-17  2.87E-17
  3.23E-17  5.23E-17  2.17E-17  2.01E-17  8.84E-17  9.38E-17  9.35E-17  9.47E-17
  1.63E-11  5.35E-12  1.04E-07  6.58E-07
 -8.3133E-01 -8.3104E-01 -7.9498E-01 -7.9436E-01 -7.9390E-01 -7.9351E-01
 -2.4769E-01 -1.3373E-01 -1.3218E-01 -9.3942E-02 -9.3507E-02 -4.6947E-02
 -7.2549E-04 -2.4529E-04  2.1996E-02  5.2633E-02  5.3160E-02  7.1186E-02
  7.3296E-02  8.2933E-02  9.6902E-02  1.3830E-01  1.4047E-01  1.5087E-01
  3.4293E-01  3.4422E-01  4.0153E-01  4.2489E-01
  prteigrs : nnsclo,ikpt=   30   52 max resid (incl. the buffer)=  6.57677E-07
 Non-SCF case, kpt   53 (  0.10714  0.00000  0.50000), residuals and eigenvalues=
  9.18E-17  5.76E-17  1.81E-17  5.52E-17  1.80E-17  2.78E-17  4.86E-17  2.15E-17
  4.02E-17  1.70E-17  1.73E-17  5.05E-17  3.80E-17  6.58E-17  1.47E-17  6.13E-17
  1.63E-17  1.88E-17  3.54E-17  6.75E-17  7.72E-17  6.50E-17  4.98E-17  3.27E-17
  2.53E-11  1.23E-11  5.04E-08  1.07E-05
 -8.3120E-01 -8.3052E-01 -7.9498E-01 -7.9493E-01 -7.9388E-01 -7.9354E-01
 -2.4578E-01 -1.3553E-01 -1.3064E-01 -8.9666E-02 -8.8858E-02 -4.5625E-02
 -1.4783E-03  2.0007E-04  2.3560E-02  5.2979E-02  5.5553E-02  7.4494E-02
  7.7500E-02  8.7116E-02  1.0227E-01  1.3904E-01  1.4482E-01  1.5407E-01
  3.4484E-01  3.4793E-01  4.0334E-01  4.2535E-01
  prteigrs : nnsclo,ikpt=   30   53 max resid (incl. the buffer)=  1.06717E-05
 Non-SCF case, kpt   54 (  0.14286  0.00000  0.50000), residuals and eigenvalues=
  5.09E-17  3.74E-17  2.46E-17  5.09E-17  2.77E-17  4.29E-17  2.33E-17  6.26E-17
  1.42E-17  2.31E-17  5.89E-17  1.63E-17  1.99E-17  1.68E-17  5.35E-17  4.33E-17
  1.40E-17  7.16E-17  2.13E-17  8.58E-17  3.11E-17  4.85E-17  6.07E-17  3.27E-17
  3.27E-11  2.11E-12  2.09E-07  7.64E-06
 -8.3105E-01 -8.2985E-01 -7.9571E-01 -7.9502E-01 -7.9392E-01 -7.9360E-01
 -2.4365E-01 -1.3626E-01 -1.3065E-01 -8.6431E-02 -8.5138E-02 -4.5413E-02
 -2.4119E-03 -8.0888E-04  2.4831E-02  5.3109E-02  5.3659E-02  7.6219E-02
  8.1506E-02  9.0705E-02  1.0527E-01  1.4106E-01  1.4618E-01  1.5709E-01
  3.4674E-01  3.5218E-01  4.0558E-01  4.2410E-01
  prteigrs : nnsclo,ikpt=   30   54 max resid (incl. the buffer)=  7.64028E-06
 Non-SCF case, kpt   55 (  0.17857  0.00000  0.50000), residuals and eigenvalues=
  7.99E-17  7.22E-17  6.25E-17  2.35E-17  4.41E-17  3.59E-17  3.78E-17  2.33E-17
  3.19E-17  7.14E-17  3.60E-17  5.89E-17  8.80E-17  5.38E-17  3.89E-17  2.32E-17
  9.82E-17  9.54E-17  5.10E-17  5.45E-17  2.31E-17  3.71E-17  6.58E-17  4.96E-17
  1.89E-11  5.15E-11  1.05E-07  2.45E-05
 -8.3086E-01 -8.2900E-01 -7.9671E-01 -7.9506E-01 -7.9400E-01 -7.9366E-01
 -2.4064E-01 -1.3900E-01 -1.3016E-01 -8.4762E-02 -8.2421E-02 -4.6480E-02
 -4.1920E-03 -2.5825E-03  2.6170E-02  5.2722E-02  5.4887E-02  7.7338E-02
  8.5822E-02  9.6192E-02  1.0983E-01  1.3922E-01  1.4453E-01  1.5768E-01
  3.4772E-01  3.5640E-01  4.0827E-01  4.2390E-01
  prteigrs : nnsclo,ikpt=   30   55 max resid (incl. the buffer)=  2.44819E-05
 Non-SCF case, kpt   56 (  0.21429  0.00000  0.50000), residuals and eigenvalues=
  6.28E-17  3.47E-17  8.22E-17  9.84E-17  1.53E-17  2.14E-17  1.82E-17  8.81E-17
  1.37E-17  1.54E-17  9.87E-17  2.31E-17  2.18E-17  3.04E-17  4.18E-17  3.49E-17
  5.46E-17  3.67E-17  6.17E-17  4.21E-17  6.04E-17  3.87E-17  4.81E-17  3.77E-17
  9.96E-12  2.42E-11  7.65E-08  9.56E-06
 -8.3066E-01 -8.2797E-01 -7.9791E-01 -7.9510E-01 -7.9410E-01 -7.9371E-01
 -2.3763E-01 -1.4246E-01 -1.3061E-01 -8.1124E-02 -7.9341E-02 -4.8322E-02
 -6.3884E-03 -5.7085E-03  2.8004E-02  5.3678E-02  5.7411E-02  7.9688E-02
  9.1593E-02  1.0057E-01  1.1108E-01  1.3717E-01  1.4146E-01  1.6107E-01
  3.4882E-01  3.6153E-01  4.1095E-01  4.2401E-01
  prteigrs : nnsclo,ikpt=   30   56 max resid (incl. the buffer)=  9.55652E-06
 Non-SCF case, kpt   57 (  0.25000  0.00000  0.50000), residuals and eigenvalues=
  6.00E-17  3.05E-17  8.55E-17  9.94E-17  1.73E-17  2.81E-17  1.30E-17  1.14E-17
  1.13E-17  1.82E-17  9.67E-17  1.98E-17  3.61E-17  1.94E-17  6.02E-17  3.49E-17
  6.30E-17  3.23E-17  5.07E-17  6.71E-17  4.88E-17  1.16E-17  5.30E-17  4.60E-17
  6.36E-12  1.01E-10  9.11E-08  4.32E-06
 -8.3045E-01 -8.2682E-01 -7.9927E-01 -7.9516E-01 -7.9424E-01 -7.9376E-01
 -2.3412E-01 -1.4664E-01 -1.3136E-01 -7.9897E-02 -7.6276E-02 -5.0606E-02
 -8.3579E-03 -7.5791E-03  3.0158E-02  5.2735E-02  5.8277E-02  8.0022E-02
  9.4172E-02  1.0355E-01  1.1088E-01  1.3524E-01  1.3774E-01  1.6124E-01
  3.4991E-01  3.6687E-01  4.1295E-01  4.2594E-01
  prteigrs : nnsclo,ikpt=   30   57 max resid (incl. the buffer)=  4.31738E-06
 Non-SCF case, kpt   58 (  0.28571  0.00000  0.50000), residuals and eigenvalues=
  2.41E-17  4.69E-17  2.55E-17  2.85E-17  3.91E-17  2.13E-17  5.60E-17  4.49E-17
  1.25E-17  4.94E-17  2.58E-17  2.47E-17  7.46E-17  4.33E-17  2.52E-17  2.27E-17
  3.34E-17  8.97E-17  7.72E-17  5.16E-17  7.48E-17  2.01E-17  5.76E-17  2.99E-17
  6.31E-12  1.53E-10  2.91E-07  4.81E-05
 -8.3025E-01 -8.2556E-01 -8.0077E-01 -7.9526E-01 -7.9444E-01 -7.9382E-01
 -2.3142E-01 -1.5282E-01 -1.3358E-01 -7.8455E-02 -7.3208E-02 -5.5131E-02
 -1.0294E-02 -7.7508E-03  3.2160E-02  4.6889E-02  5.5800E-02  7.8674E-02
  9.2165E-02  1.0097E-01  1.0707E-01  1.2802E-01  1.3423E-01  1.6053E-01
  3.5095E-01  3.7111E-01  4.1453E-01  4.2994E-01
  prteigrs : nnsclo,ikpt=   30   58 max resid (incl. the buffer)=  4.81016E-05
 Non-SCF case, kpt   59 (  0.32143  0.00000  0.50000), residuals and eigenvalues=
  8.88E-17  3.35E-17  2.79E-17  2.72E-17  2.47E-17  2.60E-17  5.06E-17  4.25E-17
  1.36E-17  4.46E-17  1.91E-17  6.17E-17  4.35E-17  2.98E-17  7.43E-17  1.55E-17
  1.27E-17  1.16E-17  7.14E-17  9.93E-17  5.96E-17  1.39E-17  3.31E-17  2.79E-17
  3.40E-12  5.63E-11  2.07E-07  3.55E-05
 -8.3005E-01 -8.2419E-01 -8.0236E-01 -7.9534E-01 -7.9456E-01 -7.9386E-01
 -2.2761E-01 -1.5730E-01 -1.3386E-01 -7.7912E-02 -7.0601E-02 -5.8292E-02
 -1.1802E-02 -8.2286E-03  3.5033E-02  4.5860E-02  5.6329E-02  8.0267E-02
  9.0409E-02  1.0324E-01  1.0902E-01  1.2435E-01  1.3373E-01  1.6069E-01
  3.5177E-01  3.7605E-01  4.1670E-01  4.3447E-01
  prteigrs : nnsclo,ikpt=   30   59 max resid (incl. the buffer)=  3.54620E-05
 Non-SCF case, kpt   60 (  0.35714  0.00000  0.50000), residuals and eigenvalues=
  8.40E-17  8.05E-17  9.08E-17  1.88E-17  2.01E-17  5.28E-17  1.09E-17  3.20E-17
  1.60E-17  3.61E-17  2.36E-17  3.64E-17  4.95E-17  2.31E-17  9.66E-17  4.03E-17
  1.95E-17  2.92E-17  5.16E-17  4.85E-17  9.53E-17  9.24E-17  6.52E-17  2.22E-17
  1.16E-12  3.47E-10  6.01E-08  3.56E-05
 -8.2986E-01 -8.2276E-01 -8.0396E-01 -7.9543E-01 -7.9466E-01 -7.9391E-01
 -2.2332E-01 -1.6246E-01 -1.3511E-01 -7.7316E-02 -6.9026E-02 -6.0771E-02
 -1.2887E-02 -8.0639E-03  3.8674E-02  4.4033E-02  5.6020E-02  8.1051E-02
  8.8821E-02  1.0403E-01  1.1222E-01  1.2030E-01  1.3361E-01  1.6202E-01
  3.5361E-01  3.8007E-01  4.2020E-01  4.3974E-01
  prteigrs : nnsclo,ikpt=   30   60 max resid (incl. the buffer)=  3.55658E-05
 Non-SCF case, kpt   61 (  0.39286  0.00000  0.50000), residuals and eigenvalues=
  9.85E-17  9.86E-17  4.19E-17  3.26E-17  4.67E-17  4.81E-17  1.99E-17  7.65E-17
  1.09E-17  4.00E-17  4.62E-17  4.32E-17  3.40E-17  6.25E-17  5.83E-17  2.01E-17
  7.98E-17  5.12E-17  3.26E-17  3.03E-17  6.28E-17  1.36E-17  3.95E-17  5.76E-17
  6.37E-13  1.21E-10  1.88E-08  4.06E-07
 -8.2969E-01 -8.2136E-01 -8.0549E-01 -7.9549E-01 -7.9473E-01 -7.9393E-01
 -2.1877E-01 -1.6648E-01 -1.3517E-01 -7.6450E-02 -6.6320E-02 -6.1921E-02
 -1.2672E-02 -7.0725E-03  4.0171E-02  4.4537E-02  5.7856E-02  8.2918E-02
  8.8106E-02  1.0610E-01  1.1531E-01  1.2047E-01  1.3398E-01  1.6300E-01
  3.5486E-01  3.8354E-01  4.2503E-01  4.4477E-01
  prteigrs : nnsclo,ikpt=   30   61 max resid (incl. the buffer)=  4.06377E-07
 Non-SCF case, kpt   62 (  0.42857  0.00000  0.50000), residuals and eigenvalues=
  2.70E-17  2.76E-17  2.60E-17  2.49E-17  8.41E-17  1.98E-17  1.34E-17  7.80E-17
  2.49E-17  2.11E-17  3.18E-17  8.86E-17  1.47E-17  3.85E-17  6.97E-17  7.15E-17
  7.99E-17  5.43E-17  5.17E-17  2.49E-17  6.57E-17  3.07E-17  1.36E-17  9.35E-17
  9.49E-13  4.58E-11  3.80E-08  5.74E-06
 -8.2955E-01 -8.2007E-01 -8.0688E-01 -7.9553E-01 -7.9477E-01 -7.9396E-01
 -2.1472E-01 -1.7003E-01 -1.3549E-01 -7.5702E-02 -6.3933E-02 -6.1210E-02
 -1.0650E-02 -7.3694E-03  4.1489E-02  4.8452E-02  5.9339E-02  8.1908E-02
  9.0186E-02  1.0728E-01  1.1324E-01  1.2019E-01  1.3635E-01  1.6392E-01
  3.5570E-01  3.8660E-01  4.3138E-01  4.4925E-01
  prteigrs : nnsclo,ikpt=   30   62 max resid (incl. the buffer)=  5.73801E-06
 Non-SCF case, kpt   63 (  0.46429  0.00000  0.50000), residuals and eigenvalues=
  8.53E-17  2.47E-17  2.96E-17  9.00E-17  9.39E-17  2.07E-17  1.81E-17  4.54E-17
  3.12E-17  3.77E-17  1.19E-17  8.06E-17  1.51E-17  5.08E-17  7.62E-17  1.98E-17
  4.29E-17  2.19E-17  4.02E-17  7.06E-17  3.50E-17  5.45E-17  2.46E-17  6.78E-17
  1.05E-12  7.17E-11  9.33E-08  2.81E-06
 -8.2947E-01 -8.1914E-01 -8.0789E-01 -7.9558E-01 -7.9480E-01 -7.9399E-01
 -2.1252E-01 -1.7213E-01 -1.3521E-01 -7.5490E-02 -6.5068E-02 -5.9865E-02
 -9.2028E-03 -7.5779E-03  3.9838E-02  5.2114E-02  5.6868E-02  7.8721E-02
  9.2256E-02  1.0842E-01  1.1078E-01  1.2001E-01  1.3601E-01  1.6355E-01
  3.5663E-01  3.8800E-01  4.3756E-01  4.5134E-01
  prteigrs : nnsclo,ikpt=   30   63 max resid (incl. the buffer)=  2.80660E-06
[...]
- others (88)                    0.000   0.0      0.000   0.0             -1      -1.00        1.09       1.09
-<END_TIMER>
-
- subtotal                     108.379  81.0    103.092  79.1                                  1.05       1.05

- For major independent code sections, cpu and wall times (sec),
- as well as % of the total time and number of calls 

-<BEGIN_TIMER mpi_nprocs = 1, omp_nthreads = 1, mpi_rank = world>
- cpu_time =         133.7, wall_time =         130.4
-
- routine                         cpu     %       wall     %      number of calls Gflops    Speedup Efficacity
-                                                                  (-1=no count)
- fourwf%(pot)                  53.860  40.3     55.276  42.4          94855      -1.00        0.97       0.97
- projbd                        33.909  25.4     27.205  20.9         146370      -1.00        1.25       1.25
- nonlop(apply)                 12.307   9.2     12.712   9.7          94855      -1.00        0.97       0.97
- vtowfk(ssdiag)                 3.463   2.6      3.169   2.4             -1      -1.00        1.09       1.09
- getghc-other                   1.773   1.3      1.539   1.2             -1      -1.00        1.15       1.15
- pspini                         1.302   1.0      1.343   1.0              3      -1.00        0.97       0.97
- fourwf%(den)                   0.787   0.6      0.804   0.6           2376      -1.00        0.98       0.98
- newkpt(excl. rwwf   )          0.313   0.2      0.317   0.2             -1      -1.00        0.99       0.99
- invars2                        0.146   0.1      0.149   0.1              3      -1.00        0.98       0.98
- timing timab                   0.143   0.1      0.144   0.1             13      -1.00        1.00       1.00
- ewald                          0.076   0.1      0.115   0.1              3      -1.00        0.66       0.66
- vtowfk(contrib)                0.068   0.1      0.058   0.0            171      -1.00        1.17       1.17
- nonlop(forstr)                 0.065   0.0      0.067   0.1            216      -1.00        0.97       0.97
- abinit(2)                      0.037   0.0      0.051   0.0              1      -1.00        0.71       0.71
- fourdp                         0.026   0.0      0.029   0.0             64      -1.00        0.87       0.87
- xc:pot/=fourdp                 0.025   0.0      0.028   0.0             14      -1.00        0.89       0.89
- stress                         0.023   0.0      0.024   0.0              1      -1.00        0.98       0.98
- ewald2 (+vdw_dftd)             0.015   0.0      0.016   0.0              1      -1.00        0.97       0.97
- symrhg(no FFT)                 0.013   0.0      0.014   0.0             12      -1.00        0.98       0.98
- mkcore                         0.011   0.0      0.012   0.0              5      -1.00        0.95       0.95
- forces                         0.009   0.0      0.010   0.0              1      -1.00        0.92       0.92
- kpgsph                         0.003   0.0      0.003   0.0            219      -1.00        1.03       1.03
- setsym                         0.002   0.0      0.002   0.0              2      -1.00        1.00       1.00
- scfcv-scprqt                   0.001   0.0      0.004   0.0             11      -1.00        0.30       0.30
- vtowfk  (1)                    0.001   0.0      0.001   0.0            171      -1.00        1.28       1.28
- others (88)                    0.000   0.0      0.000   0.0             -1      -1.00        1.09       1.09
-<END_TIMER>

- subtotal                     108.379  81.0    103.092  79.1                                  1.05       1.05

 Partitioning of abinit
- abinit                       133.727 100.0    130.398 100.0              1                   1.03       1.03
 
- abinit(1)                      0.014   0.0      0.029   0.0              1                   0.48       0.48
- abinit(2)                      0.037   0.0      0.051   0.0              1                   0.71       0.71
- indefo+macroin+invars2m        0.147   0.1      0.154   0.1              1                   0.95       0.95
- abinit(4)                      0.051   0.0      0.077   0.1              1                   0.65       0.65
- driver                       133.284  99.7    129.885  99.6              1                   1.03       1.03
- abinit(6)                      0.038   0.0      0.039   0.0              1                   0.98       0.98
- timing timab                   0.143   0.1      0.144   0.1             13                   1.00       1.00

- subtotal                     133.727 100.0    130.398 100.0                                  1.03       1.03

 Partitioning of driver
- driver                       133.284  99.7    129.885  99.6              1                   1.03       1.03
 
- gstateimg                    114.772  85.8    109.643  84.1              2                   1.05       1.05
- screening                     18.509  13.8     20.233  15.5              1                   0.91       0.91

- subtotal                     133.284  99.7    129.885  99.6                                  1.03       1.03

 Partitioning of gstateimg+gstate
- gstateimg                    114.772  85.8    109.643  84.1              2                   1.05       1.05
 
- gstate->kpgsph                 0.319   0.2      0.331   0.3              4                   0.97       0.97
- gstate(pspini)                 0.587   0.4      0.595   0.5              2                   0.99       0.99
- gstate(...scfcv)             113.524  84.9    108.163  82.9              2                   1.05       1.05
- gstate  (3)                    0.330   0.2      0.534   0.4              2                   0.62       0.62

- subtotal                     114.772  85.8    109.642  84.1                                  1.05       1.05

 Partitioning of scfcv
- scfcv                        113.524  84.9    108.162  82.9              2                   1.05       1.05
 
- scfcv(iniloop, setvtr  )       0.061   0.0      0.064   0.0             12                   0.95       0.95
- scfcv(vtorho(f))             113.265  84.7    107.871  82.7             12                   1.05       1.05
- scfcv(afterscfloop)            0.105   0.1      0.110   0.1              2                   0.95       0.95
- scfcv(outscfcv)                0.044   0.0      0.058   0.0              2                   0.75       0.75

- subtotal                     113.524  84.9    108.162  82.9                                  1.05       1.05

 Partitioning of rhotov
- rhotov                         0.026   0.0      0.026   0.0             11                   1.00       1.00
 

- subtotal                       0.026   0.0      0.026   0.0                                  1.00       1.00

 Partitioning of vtorho
- vtorho                       113.265  84.7    107.870  82.7             12                   1.05       1.05
 
- vtorho(bef. vtowfk)            0.049   0.0      0.050   0.0            171                   0.96       0.96
- vtowfk                       113.176  84.6    107.772  82.6            171                   1.05       1.05
- vtorho(mkrho 2)                0.036   0.0      0.042   0.0             23                   0.86       0.86

- subtotal                     113.265  84.7    107.870  82.7                                  1.05       1.05

 Partitioning of vtowfk
- vtowfk                       113.176  84.6    107.772  82.6            171                   1.05       1.05
 
- cgwf                         108.856  81.4    103.740  79.6            682                   1.05       1.05
- vtowfk(subdiago)               1.227   0.9      0.892   0.7            682                   1.38       1.38
- vtowfk(pw_orthon)              2.124   1.6      2.161   1.7            682                   0.98       0.98
- vtowfk(2)                      0.111   0.1      0.116   0.1             -1                   0.96       0.96
- fourwf%vtowfk                  0.787   0.6      0.804   0.6           2376                   0.98       0.98
- vtowfk(3)                      0.034   0.0      0.033   0.0             -1                   1.03       1.03

- subtotal                     113.176  84.6    107.772  82.6                                  1.05       1.05

 Partitioning of cgwf
- cgwf                         108.856  81.4    103.740  79.6            682                   1.05       1.05
 
- getghc%cgwf                   67.940  50.8     69.528  53.3          94855                   0.98       0.98
- cgwf-O(npw)                    7.008   5.2      7.007   5.4             -1                   1.00       1.00
- projbd%cgwf                   33.909  25.4     27.205  20.9         146370                   1.25       1.25

- subtotal                     108.856  81.4    103.740  79.6                                  1.05       1.05

 Partitioning of getghc
- getghc                        67.940  50.8     69.528  53.3          94855                   0.98       0.98
 
- fourwf%getghc                 53.860  40.3     55.276  42.4          94855                   0.97       0.97
- nonlop%getghc                 12.307   9.2     12.712   9.7          94855                   0.97       0.97
- getghc-other                   1.773   1.3      1.539   1.2             -1                   1.15       1.15

- subtotal                      67.940  50.8     69.528  53.3                                  0.98       0.98

 Partitioning of fourwf (upwards partitioning)
- fourwf                        54.648  40.9     56.080  43.0          97231                   0.97       0.97
 
- fourwf%getghc                 53.860  40.3     55.276  42.4          94855                   0.97       0.97
- fourwf%vtowfk                  0.787   0.6      0.804   0.6           2376                   0.98       0.98

- subtotal                      54.648  40.9     56.080  43.0                                  0.97       0.97

 Partitioning of screening
- screening                     18.509  13.8     20.233  15.5              1                   0.91       0.91
 
- screening(init1)               1.167   0.9      1.322   1.0              1                   0.88       0.88
- screening(wfs)                 0.031   0.0      0.078   0.1              1                   0.39       0.39
- screening(density)             0.205   0.2      0.374   0.3              1                   0.55       0.55
- screening(2)                   0.053   0.0      0.103   0.1              1                   0.52       0.52
- screening(cchi0q0)             3.841   2.9      5.046   3.9              1                   0.76       0.76
- screening(cchi0)              13.147   9.8     13.241  10.2              8                   0.99       0.99
- screening(q-loop,end)          0.048   0.0      0.050   0.0              9                   0.96       0.96

- subtotal                      18.506  13.8     20.229  15.5                                  0.91       0.91

 Partitioning of inwffil
- inwffil                        0.314   0.2      0.319   0.2              2                   0.98       0.98
 
- inwffil(call newkpt)           0.314   0.2      0.319   0.2              2                   0.98       0.98

- subtotal                       0.314   0.2      0.319   0.2                                  0.98       0.98

 Partitioning of newkpt
- newkpt                         0.314   0.2      0.317   0.2              2                   0.99       0.99
 
- newkpt(call wfconv)            0.312   0.2      0.315   0.2             81                   0.99       0.99

- subtotal                       0.313   0.2      0.317   0.2                                  0.99       0.99

 Partitioning of newvtr
- newvtr                         0.020   0.0      0.021   0.0             10                   0.95       0.95
 

- subtotal                       0.020   0.0      0.021   0.0                                  0.95       0.95

 Partitioning of  fourdp (upwards partitioning)
- fourdp                         0.026   0.0      0.029   0.0             64                   0.87       0.87
 
- fourdp%(other)                 0.025   0.0      0.029   0.0             63                   0.88       0.88

- subtotal                       0.026   0.0      0.029   0.0                                  0.87       0.87

 Partitioning of afterscfloop
- afterscfloop                   0.105   0.1      0.109   0.1              2                   0.96       0.96
 
- afterscfloop(forstr)           0.104   0.1      0.109   0.1              2                   0.96       0.96

- subtotal                       0.105   0.1      0.109   0.1                                  0.96       0.96

 Partitioning of forstr
- forstr                         0.104   0.1      0.108   0.1              1                   0.96       0.96
 
- forstr(forstrnps)              0.072   0.1      0.074   0.1              1                   0.97       0.97

- subtotal                       0.104   0.1      0.108   0.1                                  0.96       0.96

 Partitioning of forstrnps
- forstrnps                      0.072   0.1      0.074   0.1              1                   0.97       0.97
 
- forstrnps(nonlop+prep_ba       0.066   0.0      0.068   0.1            216                   0.97       0.97

- subtotal                       0.072   0.1      0.074   0.1                                  0.97       0.97

 Partitioning of outscfcv
- outscfcv                       0.044   0.0      0.058   0.0              2                   0.75       0.75
 
- outscfcv([PAW]prtden)          0.021   0.0      0.031   0.0              2                   0.69       0.69

- subtotal                       0.037   0.0      0.049   0.0                                  0.76       0.76
-
-Synchronisation (=leave_test) and MPI calls 
- communic.MPI                   0.370   0.3      0.333   0.3         492460                   1.11       1.11
-
- forstrnps:synchr               0.000   0.0      0.000   0.0              2                   1.88       1.88
- subtotal                       0.000   0.0      0.000   0.0                                  1.88       1.88

 Additional information
- timana(1)                      0.000   0.0      0.000   0.0              1                   0.34       0.34
- total timab                    1.174   0.9      1.176   0.9        1062432                   1.00       1.00
- fourwf                        54.648  40.9     56.080  43.0          97231                   0.97       0.97
- mklocl(2)                      0.003   0.0      0.003   0.0              1                   1.00       1.00
- status                         0.000   0.0      0.000   0.0              1                   1.14       1.14
- nonlop(forstr)                 0.065   0.0      0.067   0.1            216                   0.97       0.97
- nonlop(total)                 12.372   9.3     12.780   9.8          95071                   0.97       0.97
- cchi0                         13.147   9.8     13.240  10.2              8                   0.99       0.99

 timana : in multi dataset mode, the more detailed analysis is not done.

================================================================================

 Suggested references for the acknowledgment of ABINIT usage.

 The users of ABINIT have little formal obligations with respect to the ABINIT group
 (those specified in the GNU General Public License, http://www.gnu.org/copyleft/gpl.txt).
 However, it is common practice in the scientific literature,
 to acknowledge the efforts of people that have made the research possible.
 In this spirit, please find below suggested citations of work written by ABINIT developers,
 corresponding to implementations inside of ABINIT that you have used in the present run.
 Note also that it will be of great value to readers of publications presenting these results,
 to read papers enabling them to understand the theoretical formalism and details
 of the ABINIT implementation.
 For information on why they are suggested, see also http://www.abinit.org/about/?text=acknowledgments.
-
- [1] Sharing electronic structure and crystallographic data with ETSF_IO
- D. Caliste, Y. Pouillon, M.J. Verstraete, V. Olevano, X. Gonze,
- Comput. Physics Communications 179, 748 (2008).
- Comment : to be cited in case the ETSF_IO file format is used, i.e. iomode=3.
-
- [2] Recent developments in the ABINIT software package.
- Computer Phys. Comm. 205, 106 (2016).
- X.Gonze, F.Jollet, F.Abreu Araujo, D.Adams, B.Amadon, T.Applencourt,
- C.Audouze, J.-M.Beuken, J.Bieder, A.Bokhanchuk, E.Bousquet, F.Bruneval
- D.Caliste, M.Cote, F.Dahm, F.Da Pieve, M.Delaveau, M.Di Gennaro,
- B.Dorado, C.Espejo, G.Geneste, L.Genovese, A.Gerossier, M.Giantomassi,
- Y.Gillet, D.R.Hamann, L.He, G.Jomard, J.Laflamme Janssen, S.Le Roux,
- A.Levitt, A.Lherbier, F.Liu, I.Lukacevic, A.Martin, C.Martins,
- M.J.T.Oliveira, S.Ponce, Y.Pouillon, T.Rangel, G.-M.Rignanese,
- A.H.Romero, B.Rousseau, O.Rubel, A.A.Shukri, M.Stankovski, M.Torrent,
- M.J.Van Setten, B.Van Troeye, M.J.Verstraete, D.Waroquier, J.Wiktor,
- B.Xue, A.Zhou, J.W.Zwanziger.
- Comment : the fourth generic paper describing the ABINIT project.
- Note that a version of this paper, that is not formatted for Computer Phys. Comm. 
- is available at http://www.abinit.org/about/ABINIT16.pdf .
- The licence allows the authors to put it on the Web.
-
- [3] ABINIT : First-principles approach of materials and nanosystem properties.
- Computer Phys. Comm. 180, 2582-2615 (2009).
- X. Gonze, B. Amadon, P.-M. Anglade, J.-M. Beuken, F. Bottin, P. Boulanger, F. Bruneval,
- D. Caliste, R. Caracas, M. Cote, T. Deutsch, L. Genovese, Ph. Ghosez, M. Giantomassi
- S. Goedecker, D.R. Hamann, P. Hermet, F. Jollet, G. Jomard, S. Leroux, M. Mancini, S. Mazevet,
- M.J.T. Oliveira, G. Onida, Y. Pouillon, T. Rangel, G.-M. Rignanese, D. Sangalli, R. Shaltaf,
- M. Torrent, M.J. Verstraete, G. Zerah, J.W. Zwanziger
- Comment : the third generic paper describing the ABINIT project.
- Note that a version of this paper, that is not formatted for Computer Phys. Comm. 
- is available at http://www.abinit.org/about/ABINIT_CPC_v10.pdf .
- The licence allows the authors to put it on the Web.
-
- [4] A brief introduction to the ABINIT software package.
- Z. Kristallogr. 220, 558-562 (2005).
- X. Gonze, G.-M. Rignanese, M. Verstraete, J.-M. Beuken, Y. Pouillon, R. Caracas, F. Jollet,
- M. Torrent, G. Zerah, M. Mikami, Ph. Ghosez, M. Veithen, J.-Y. Raty, V. Olevano, F. Bruneval,
- L. Reining, R. Godby, G. Onida, D.R. Hamann, and D.C. Allan.
- Comment : the second generic paper describing the ABINIT project. Note that this paper
- should be cited especially if you are using the GW part of ABINIT, as several authors
- of this part are not in the list of authors of the first or third paper.
- The .pdf of the latter paper is available at http://www.abinit.org/about/zfk_0505-06_558-562.pdf.
- Note that it should not redistributed (Copyright by Oldenburg Wissenshaftverlag,
- the licence allows the authors to put it on the Web).
-
- And optionally:
-
- [5] First-principles computation of material properties : the ABINIT software project. 
- X. Gonze, J.-M. Beuken, R. Caracas, F. Detraux, M. Fuchs, G.-M. Rignanese, L. Sindic,
- M. Verstraete, G. Zerah, F. Jollet, M. Torrent, A. Roy, M. Mikami, Ph. Ghosez, J.-Y. Raty, D.C. Allan.
- Computational Materials Science 25, 478-492 (2002). http://dx.doi.org/10.1016/S0927-0256(02)00325-7
- Comment : the original paper describing the ABINIT project.
-
- Proc.   0 individual time (sec): cpu=        133.7  wall=        130.4

================================================================================

 Calculation completed.
.Delivered   5 WARNINGs and   4 COMMENTs to log file.
+Overall time at end (sec) : cpu=        133.7  wall=        130.4
