
.Version 7.3.2 of ABINIT 
.(MPI version, prepared for a x86_64_linux_gnu4.7 computer) 

.Copyright (C) 1998-2013 ABINIT group . 
 ABINIT comes with ABSOLUTELY NO WARRANTY.
 It is free software, and you are welcome to redistribute it
 under certain conditions (GNU General Public License,
 see ~abinit/COPYING or http://www.gnu.org/copyleft/gpl.txt).

 ABINIT is a project of the Universite Catholique de Louvain,
 Corning Inc. and other collaborators, see ~abinit/doc/developers/contributors.txt .
 Please read ~abinit/doc/users/acknowledgments.html for suggested
 acknowledgments of the ABINIT effort.
 For more information, see http://www.abinit.org .

.Starting date : Mon 20 May 2013.
- ( at 14h36 )
  
- input  file    -> /home/gonze/ABINIT/ABINITv7.3.2/gonze/7.3.2-private/tests/v6/Input/t01.in
- output file    -> t01.out
- root for input  files -> t01i
- root for output files -> t01o


 DATASET    1 : space group P1 (#  1); Bravais aP (primitive triclinic)
================================================================================
 Values of the parameters that define the memory need for DATASET  1.
   intxc =         0  ionmov =         0    iscf =         3 xclevel =         1
  lmnmax =         2   lnmax =         2   mband =        16  mffmem =         1
P  mgfft =        64   mkmem =         1 mpssoang=         3     mpw =       332
  mqgrid =      3001   natom =         8    nfft =     16384    nkpt =         1
  nloalg =         4  nspden =         1 nspinor =         1  nsppol =         1
    nsym =         1  n1xccc =         0  ntypat =         1  occopt =         1
 For the susceptibility and dielectric matrices, or tddft :
   mgfft =        48  nbnd_in_blk=     6    nfft =      4800     npw =       349
================================================================================
P This job should need less than                       8.496 Mbytes of memory.
  Rough estimation (10% accuracy) of disk space for files :
_ WF disk file :      0.083 Mbytes ; DEN or POT disk file :      0.127 Mbytes.
================================================================================


 DATASET    2 : space group P1 (#  1); Bravais aP (primitive triclinic)
================================================================================
 Values of the parameters that define the memory need for DATASET  2.
   intxc =         0  ionmov =         0    iscf =         3 xclevel =         1
  lmnmax =         2   lnmax =         2   mband =        16  mffmem =         1
P  mgfft =        64   mkmem =         1 mpssoang=         3     mpw =       332
  mqgrid =      3001   natom =         8    nfft =     16384    nkpt =         1
  nloalg =         4  nspden =         1 nspinor =         1  nsppol =         1
    nsym =         1  n1xccc =         0  ntypat =         1  occopt =         1
 For the susceptibility and dielectric matrices, or tddft :
   mgfft =        48  nbnd_in_blk=     6    nfft =      4800     npw =       349
================================================================================
P This job should need less than                       8.496 Mbytes of memory.
  Rough estimation (10% accuracy) of disk space for files :
_ WF disk file :      0.083 Mbytes ; DEN or POT disk file :      0.127 Mbytes.
================================================================================


 DATASET    3 : space group P1 (#  1); Bravais aP (primitive triclinic)
================================================================================
 Values of the parameters that define the memory need for DATASET  3.
   intxc =         0  ionmov =         0    iscf =         3 xclevel =         1
  lmnmax =         2   lnmax =         2   mband =        16  mffmem =         1
P  mgfft =        64   mkmem =         1 mpssoang=         3     mpw =       332
  mqgrid =      3001   natom =         8    nfft =     16384    nkpt =         1
  nloalg =         4  nspden =         1 nspinor =         1  nsppol =         1
    nsym =         1  n1xccc =         0  ntypat =         1  occopt =         1
 For the susceptibility and dielectric matrices, or tddft :
   mgfft =        48  nbnd_in_blk=     6    nfft =      4800     npw =       349
================================================================================
P This job should need less than                       8.496 Mbytes of memory.
  Rough estimation (10% accuracy) of disk space for files :
_ WF disk file :      0.083 Mbytes ; DEN or POT disk file :      0.127 Mbytes.
================================================================================


 DATASET    4 : space group P1 (#  1); Bravais aP (primitive triclinic)
================================================================================
 Values of the parameters that define the memory need for DATASET  4.
   intxc =         0  ionmov =         0    iscf =         3 xclevel =         1
  lmnmax =         2   lnmax =         2   mband =        16  mffmem =         1
P  mgfft =        64   mkmem =         1 mpssoang=         3     mpw =       332
  mqgrid =      3001   natom =         8    nfft =     16384    nkpt =         1
  nloalg =         4  nspden =         1 nspinor =         1  nsppol =         1
    nsym =         1  n1xccc =         0  ntypat =         1  occopt =         1
 For the susceptibility and dielectric matrices, or tddft :
   mgfft =        48  nbnd_in_blk=     6    nfft =      4800     npw =       349
================================================================================
P This job should need less than                       8.496 Mbytes of memory.
  Rough estimation (10% accuracy) of disk space for files :
_ WF disk file :      0.083 Mbytes ; DEN or POT disk file :      0.127 Mbytes.
================================================================================


 DATASET    5 : space group P1 (#  1); Bravais aP (primitive triclinic)
================================================================================
 Values of the parameters that define the memory need for DATASET  5.
   intxc =         0  ionmov =         0    iscf =         3 xclevel =         1
  lmnmax =         2   lnmax =         2   mband =        16  mffmem =         1
P  mgfft =        64   mkmem =         1 mpssoang=         3     mpw =       332
  mqgrid =      3001   natom =         8    nfft =     16384    nkpt =         1
  nloalg =         4  nspden =         1 nspinor =         1  nsppol =         1
    nsym =         1  n1xccc =         0  ntypat =         1  occopt =         1
 For the susceptibility and dielectric matrices, or tddft :
   mgfft =        48  nbnd_in_blk=     6    nfft =      4800     npw =       349
================================================================================
P This job should need less than                       8.496 Mbytes of memory.
  Rough estimation (10% accuracy) of disk space for files :
_ WF disk file :      0.083 Mbytes ; DEN or POT disk file :      0.127 Mbytes.
================================================================================

--------------------------------------------------------------------------------
------------- Echo of variables that govern the present computation ------------
--------------------------------------------------------------------------------
-
- outvars: echo of selected default values                                      
-   accesswff0 =  0 , fftalg0 =112 , wfoptalg0 =  0
-
- outvars: echo of global parameters not present in the input file              
-  max_nthreads =    0
-
 -outvars: echo values of preprocessed input variables --------
            acell      1.0000000000E+01  1.0000000000E+01  5.0000000000E+01 Bohr
              amu      2.80855000E+01
           diecut      1.20000000E+00 Hartree
           diegap      2.00000000E-01 Hartree
             ecut      2.00000000E+00 Hartree
           getwfk1          0
           getwfk2          1
           getwfk3          1
           getwfk4          1
           getwfk5          1
           iprcel          45
             iscf           3
           istwfk        4
              ixc           3
           jdtset        1    2    3    4    5
              kpt      0.00000000E+00  0.00000000E+00  5.00000000E-01
           kptopt           0
P           mkmem           1
            natom           8
            nband          16
           ndtset           5
            ngfft          16      16      64
             nkpt           1
            nstep1         30
            nstep2         15
            nstep3         15
            nstep4         15
            nstep5         15
             nsym           1
           ntypat           1
              occ      2.000000  2.000000  2.000000  2.000000  2.000000  2.000000
                       2.000000  2.000000  2.000000  2.000000  2.000000  2.000000
                       2.000000  2.000000  2.000000  2.000000
           qprtrb1          0       0       0
           qprtrb2          0       0       1
           qprtrb3          0       0       1
           qprtrb4          0       0       1
           qprtrb5          0       0       1
          spgroup           1
           tolwfr      1.00000000E-22
            typat      1  1  1  1  1  1  1  1
           vprtrb1     0.00000000E+00  0.00000000E+00 Hartree
           vprtrb2     1.00000000E+02  0.00000000E+00 Hartree
           vprtrb3     1.00000000E+01  0.00000000E+00 Hartree
           vprtrb4     1.00000000E+00  0.00000000E+00 Hartree
           vprtrb5    -1.00000000E+01  0.00000000E+00 Hartree
           xangst      0.0000000000E+00  0.0000000000E+00  0.0000000000E+00
                       0.0000000000E+00  0.0000000000E+00  1.3229430215E+00
                       0.0000000000E+00  0.0000000000E+00  6.6147151074E+00
                       0.0000000000E+00  0.0000000000E+00  7.9376581288E+00
                       0.0000000000E+00  0.0000000000E+00  1.3229430215E+01
                       0.0000000000E+00  0.0000000000E+00  1.4552373236E+01
                       0.0000000000E+00  0.0000000000E+00  1.9844145322E+01
                       0.0000000000E+00  0.0000000000E+00  2.1167088344E+01
            xcart      0.0000000000E+00  0.0000000000E+00  0.0000000000E+00
                       0.0000000000E+00  0.0000000000E+00  2.5000000000E+00
                       0.0000000000E+00  0.0000000000E+00  1.2500000000E+01
                       0.0000000000E+00  0.0000000000E+00  1.5000000000E+01
                       0.0000000000E+00  0.0000000000E+00  2.5000000000E+01
                       0.0000000000E+00  0.0000000000E+00  2.7500000000E+01
                       0.0000000000E+00  0.0000000000E+00  3.7500000000E+01
                       0.0000000000E+00  0.0000000000E+00  4.0000000000E+01
             xred      0.0000000000E+00  0.0000000000E+00  0.0000000000E+00
                       0.0000000000E+00  0.0000000000E+00  5.0000000000E-02
                       0.0000000000E+00  0.0000000000E+00  2.5000000000E-01
                       0.0000000000E+00  0.0000000000E+00  3.0000000000E-01
                       0.0000000000E+00  0.0000000000E+00  5.0000000000E-01
                       0.0000000000E+00  0.0000000000E+00  5.5000000000E-01
                       0.0000000000E+00  0.0000000000E+00  7.5000000000E-01
                       0.0000000000E+00  0.0000000000E+00  8.0000000000E-01
            znucl       14.00000

================================================================================

 chkinp: Checking input parameters for consistency, jdtset=   1.

 chkinp: Checking input parameters for consistency, jdtset=   2.

 chkinp: Checking input parameters for consistency, jdtset=   3.

 chkinp: Checking input parameters for consistency, jdtset=   4.

 chkinp: Checking input parameters for consistency, jdtset=   5.

================================================================================
== DATASET  1 ==================================================================
-   nproc =    1

 Exchange-correlation functional for the present dataset will be:
  LDA: old Teter (4/91) fit to Ceperley-Alder data - ixc=3

 Real(R)+Recip(G) space primitive vectors, cartesian coordinates (Bohr,Bohr^-1):
 R(1)= 10.0000000  0.0000000  0.0000000  G(1)=  0.1000000  0.0000000  0.0000000
 R(2)=  0.0000000 10.0000000  0.0000000  G(2)=  0.0000000  0.1000000  0.0000000
 R(3)=  0.0000000  0.0000000 50.0000000  G(3)=  0.0000000  0.0000000  0.0200000
 Unit cell volume ucvol=  5.0000000E+03 bohr^3
 Angles (23,13,12)=  9.00000000E+01  9.00000000E+01  9.00000000E+01 degrees

 getcut: wavevector=  0.0000  0.0000  0.0000  ngfft=  16  16  64
         ecut(hartree)=      2.000   => boxcut(ratio)=   2.01062

--- Pseudopotential description ------------------------------------------------
- pspini: atom type   1  psp file is /home/gonze/ABINIT/ABINITv7.3.2/gonze/7.3.2-private/tests/Psps_for_tests/14si.Hamann_mod
- pspatm: opening atomic psp file    /home/gonze/ABINIT/ABINITv7.3.2/gonze/7.3.2-private/tests/Psps_for_tests/14si.Hamann_mod
-   Si psp produced from Hamann's atompp on 14 Feb 1990 ( !! OLD, for tests only )
- 14.00000   4.00000    900214                znucl, zion, pspdat
    5    3    2    0       770   0.00000      pspcod,pspxc,lmax,lloc,mmax,r2well
    1.000000E-06    2.357045E-02              r1 and al (Hamman grid)
    0   0.000   0.000    0   1.0529960        l,e99.0,e99.9,nproj,rcpsp
   0.00000000   0.00000000   0.00000000   0.00000000     rms, ekb1, ekb2, epsatm
    1   0.000   0.000    1   1.2715070        l,e99.0,e99.9,nproj,rcpsp
   0.00000000   0.00000000   0.00000000   0.00000000     rms, ekb1, ekb2, epsatm
    2   0.000   0.000    1   1.2715070        l,e99.0,e99.9,nproj,rcpsp
   0.00000000   0.00000000   0.00000000   0.00000000     rms, ekb1, ekb2, epsatm
    0.00000000000000    0.00000000000000    0.00000000000000   rchrg,fchrg,qchrg
 pspatm: epsatm=   28.17357484
         --- l  ekb(1:nproj) -->
             1   -2.083263
             2   -1.959803
 pspatm: atomic psp has been read  and splines computed

   7.21243516E+03                                ecore*ucvol(ha*bohr**3)
--------------------------------------------------------------------------------

P newkpt: treating     16 bands with npw=     332 for ikpt=   1 by node    0

_setup2: Arith. and geom. avg. npw (full set) are     664.000     664.000

================================================================================

     iter   Etot(hartree)      deltaE(h)  residm     vres2
 ETOT  1  -26.439093879375    -2.644E+01 1.025E-02 5.436E+01
 ETOT  2  -26.592796984198    -1.537E-01 1.204E-06 1.731E+01
 ETOT  3  -26.593111533460    -3.145E-04 7.218E-05 2.004E+01
 ETOT  4  -26.599876750258    -6.765E-03 2.948E-05 4.519E-02
 ETOT  5  -26.599921701302    -4.495E-05 4.020E-07 1.966E-02
 ETOT  6  -26.599967814144    -4.611E-05 7.096E-08 1.155E-03
 ETOT  7  -26.599969351557    -1.537E-06 6.904E-09 1.306E-03
 ETOT  8  -26.599969556164    -2.046E-07 2.602E-09 3.398E-04
 ETOT  9  -26.599969755487    -1.993E-07 1.235E-09 1.788E-04
 ETOT 10  -26.599969846276    -9.079E-08 6.022E-10 1.168E-04
 ETOT 11  -26.599969871212    -2.494E-08 2.457E-10 4.653E-05
 ETOT 12  -26.599969881146    -9.935E-09 1.366E-10 3.206E-05
 ETOT 13  -26.599969888715    -7.568E-09 7.746E-11 1.521E-05
 ETOT 14  -26.599969891709    -2.995E-09 3.903E-11 9.686E-06
 ETOT 15  -26.599969893492    -1.782E-09 2.108E-11 4.682E-06
 ETOT 16  -26.599969893866    -3.740E-10 1.312E-11 3.196E-06
 ETOT 17  -26.599969894725    -8.593E-10 7.135E-12 1.455E-06
 ETOT 18  -26.599969894867    -1.425E-10 3.790E-12 9.896E-07
 ETOT 19  -26.599969895008    -1.403E-10 2.099E-12 4.774E-07
 ETOT 20  -26.599969895098    -8.991E-11 1.361E-12 3.139E-07
 ETOT 21  -26.599969895154    -5.630E-11 6.778E-13 1.473E-07
 ETOT 22  -26.599969895162    -7.869E-12 3.813E-13 1.023E-07
 ETOT 23  -26.599969895187    -2.516E-11 2.480E-13 4.677E-08
 ETOT 24  -26.599969895193    -5.731E-12 1.251E-13 3.149E-08
 ETOT 25  -26.599969895197    -4.004E-12 7.021E-14 1.512E-08
 ETOT 26  -26.599969895199    -2.611E-12 4.581E-14 1.012E-08
 ETOT 27  -26.599969895201    -2.011E-12 2.171E-14 4.647E-09
 ETOT 28  -26.599969895201     2.416E-13 1.309E-14 3.245E-09
 ETOT 29  -26.599969895202    -1.396E-12 7.839E-15 1.492E-09
 ETOT 30  -26.599969895203    -1.172E-13 3.945E-15 1.002E-09

 Cartesian components of stress tensor (hartree/bohr^3)
  sigma(1 1)=  3.12986279E-04  sigma(3 2)=  0.00000000E+00
  sigma(2 2)=  3.12986279E-04  sigma(3 1)=  0.00000000E+00
  sigma(3 3)= -2.52556365E-03  sigma(2 1)=  0.00000000E+00


 scprqt:  WARNING -
  nstep=   30 was not enough SCF cycles to converge;
  maximum residual=  3.945E-15 exceeds tolwfr=  1.000E-22

================================================================================

 ----iterations are completed or convergence reached----

 Mean square residual over all n,k,spin=   3.4259E-15; max=  3.9449E-15
   0.0000  0.0000  0.5000    1  3.94495E-15 kpt; spin; max resid(k); each band:
  3.45E-15 3.50E-15 3.46E-15 3.51E-15 3.18E-15 3.18E-15 3.19E-15 3.19E-15
  3.80E-15 3.94E-15 3.17E-15 3.17E-15 3.17E-15 3.17E-15 3.85E-15 3.90E-15
 reduced coordinates (array xred) for    8 atoms
       0.000000000000      0.000000000000      0.000000000000
       0.000000000000      0.000000000000      0.050000000000
       0.000000000000      0.000000000000      0.250000000000
       0.000000000000      0.000000000000      0.300000000000
       0.000000000000      0.000000000000      0.500000000000
       0.000000000000      0.000000000000      0.550000000000
       0.000000000000      0.000000000000      0.750000000000
       0.000000000000      0.000000000000      0.800000000000
 rms dE/dt=  4.0254E+01; max dE/dt=  6.9721E+01; dE/dt below (all hartree)
    1      -0.000000000000      0.000000000001     69.721107107308
    2       0.000000000000     -0.000000000002    -69.721166876936
    3       0.000000000000      0.000000000000     69.721108062850
    4      -0.000000000000     -0.000000000000    -69.721165932833
    5       0.000000000002     -0.000000000000     69.721108042100
    6      -0.000000000001      0.000000000000    -69.721165864505
    7      -0.000000000001      0.000000000001     69.721107044425
    8       0.000000000001     -0.000000000001    -69.721166850647

 cartesian coordinates (angstrom) at end:
    1      0.00000000000000     0.00000000000000     0.00000000000000
    2      0.00000000000000     0.00000000000000     1.32294302147500
    3      0.00000000000000     0.00000000000000     6.61471510737500
    4      0.00000000000000     0.00000000000000     7.93765812885000
    5      0.00000000000000     0.00000000000000    13.22943021475000
    6      0.00000000000000     0.00000000000000    14.55237323622500
    7      0.00000000000000     0.00000000000000    19.84414532212500
    8      0.00000000000000     0.00000000000000    21.16708834360000

 cartesian forces (hartree/bohr) at end:
    1      0.00000000000004    -0.00000000000012    -1.39442273031676
    2     -0.00000000000002     0.00000000000015     1.39442274936813
    3     -0.00000000000001    -0.00000000000005    -1.39442274942760
    4      0.00000000000004     0.00000000000004     1.39442273048606
    5     -0.00000000000016     0.00000000000002    -1.39442274901259
    6      0.00000000000014    -0.00000000000002     1.39442272911950
    7      0.00000000000011    -0.00000000000011    -1.39442272905909
    8     -0.00000000000014     0.00000000000009     1.39442274884234
 frms,max,avg= 8.0507034E-01 1.3944227E+00   0.000E+00  1.160E-14  5.882E-07 h/b

 cartesian forces (eV/Angstrom) at end:
    1      0.00000000000228    -0.00000000000600   -71.70409375502261
    2     -0.00000000000098     0.00000000000757    71.70409473468354
    3     -0.00000000000041    -0.00000000000267   -71.70409473774161
    4      0.00000000000207     0.00000000000185    71.70409376372858
    5     -0.00000000000839     0.00000000000098   -71.70409471640089
    6      0.00000000000701    -0.00000000000080    71.70409369345747
    7      0.00000000000557    -0.00000000000569   -71.70409369035104
    8     -0.00000000000715     0.00000000000476    71.70409470764655
 frms,max,avg= 4.1398378E+01 7.1704095E+01   0.000E+00  5.963E-13  3.024E-05 e/A
 length scales= 10.000000000000 10.000000000000 50.000000000000 bohr
              =  5.291772085900  5.291772085900 26.458860429500 angstroms
 prteigrs : about to open file t01o_DS1_EIG
 Fermi (or HOMO) energy (hartree) =  -0.21652   Average Vxc (hartree)=  -0.14741
 Eigenvalues (hartree) for nkpt=   1  k points:
 kpt#   1, nband= 16, wtk=  1.00000, kpt=  0.0000  0.0000  0.5000 (reduced coord)
  -0.46428  -0.46428  -0.46036  -0.46036  -0.22810  -0.22810  -0.22810  -0.22810
  -0.22767  -0.22767  -0.22696  -0.22696  -0.22696  -0.22696  -0.21652  -0.21652
 Total charge density [el/Bohr^3]
,     Maximum=    9.3653E-02  at reduced coord.    0.0000    0.8750    0.5313
,Next maximum=    9.3653E-02  at reduced coord.    0.0000    0.1250    0.5313
,     Minimum=    1.9853E-05  at reduced coord.    0.5000    0.5000    0.6875
,Next minimum=    1.9853E-05  at reduced coord.    0.5000    0.5000    0.9375
,  Integrated=    3.2000E+01

--------------------------------------------------------------------------------
 Components of total free energy (in Hartree) :

    Kinetic energy  =  1.18425223006248E+01
    Hartree energy  =  1.44563383695903E+01
    XC energy       = -9.12914428442030E+00
    Ewald energy    = -7.24574705155022E+00
    PspCore energy  =  1.44248703173915E+00
    Loc. psp. energy= -3.71009997087150E+01
    NL   psp  energy= -8.65426552471214E-01
    >>>>>>>>> Etotal= -2.65999698952026E+01

 Other information on the energy :
    Total energy(eV)= -7.23821991482801E+02 ; Band energy (Ha)=  -9.1157955177E+00
--------------------------------------------------------------------------------

 Cartesian components of stress tensor (hartree/bohr^3)
  sigma(1 1)=  3.12986279E-04  sigma(3 2)=  0.00000000E+00
  sigma(2 2)=  3.12986279E-04  sigma(3 1)=  0.00000000E+00
  sigma(3 3)= -2.52556365E-03  sigma(2 1)=  0.00000000E+00

-Cartesian components of stress tensor (GPa)         [Pressure=  1.8629E+01 GPa]
- sigma(1 1)=  9.20837270E+00  sigma(3 2)=  0.00000000E+00
- sigma(2 2)=  9.20837270E+00  sigma(3 1)=  0.00000000E+00
- sigma(3 3)= -7.43046354E+01  sigma(2 1)=  0.00000000E+00

================================================================================
== DATASET  2 ==================================================================
-   nproc =    1

 mkfilename : getwfk/=0, take file _WFK from output of DATASET   1.

 Exchange-correlation functional for the present dataset will be:
  LDA: old Teter (4/91) fit to Ceperley-Alder data - ixc=3

 Real(R)+Recip(G) space primitive vectors, cartesian coordinates (Bohr,Bohr^-1):
 R(1)= 10.0000000  0.0000000  0.0000000  G(1)=  0.1000000  0.0000000  0.0000000
 R(2)=  0.0000000 10.0000000  0.0000000  G(2)=  0.0000000  0.1000000  0.0000000
 R(3)=  0.0000000  0.0000000 50.0000000  G(3)=  0.0000000  0.0000000  0.0200000
 Unit cell volume ucvol=  5.0000000E+03 bohr^3
 Angles (23,13,12)=  9.00000000E+01  9.00000000E+01  9.00000000E+01 degrees

 getcut: wavevector=  0.0000  0.0000  0.0000  ngfft=  16  16  64
         ecut(hartree)=      2.000   => boxcut(ratio)=   2.01062
--------------------------------------------------------------------------------

-inwffil : will read wavefunctions from disk file t01o_DS1_WFK
P newkpt: treating     16 bands with npw=     332 for ikpt=   1 by node    0

_setup2: Arith. and geom. avg. npw (full set) are     664.000     664.000

================================================================================

     iter   Etot(hartree)      deltaE(h)  residm     vres2
 ETOT  1  -26.585922932169    -2.659E+01 1.426E-07 4.439E+01
 ETOT  2  -26.569223637350     1.670E-02 1.923E-07 1.013E+02
 ETOT  3  -26.600252906941    -3.103E-02 7.681E-05 1.604E-01
 ETOT  4  -26.600289169051    -3.626E-05 3.884E-07 2.869E-02
 ETOT  5  -26.600272936488     1.623E-05 1.245E-07 6.258E-02
 ETOT  6  -26.600315380138    -4.244E-05 5.264E-08 2.613E-03
 ETOT  7  -26.600313156840     2.223E-06 1.152E-08 5.113E-03
 ETOT  8  -26.600317629352    -4.473E-06 4.051E-09 7.056E-06
 ETOT  9  -26.600317632912    -3.560E-09 3.950E-11 1.151E-05
 ETOT 10  -26.600317636444    -3.532E-09 2.213E-11 2.545E-06
 ETOT 11  -26.600317634894     1.551E-09 1.113E-11 4.770E-06
 ETOT 12  -26.600317638739    -3.845E-09 3.809E-12 6.754E-08
 ETOT 13  -26.600317638700     3.918E-11 6.518E-13 1.709E-07
 ETOT 14  -26.600317638775    -7.486E-11 2.641E-13 7.347E-10
 ETOT 15  -26.600317638775    -8.171E-14 2.868E-15 3.336E-10

 Cartesian components of stress tensor (hartree/bohr^3)
  sigma(1 1)=  3.13103108E-04  sigma(3 2)=  0.00000000E+00
  sigma(2 2)=  3.13103108E-04  sigma(3 1)=  0.00000000E+00
  sigma(3 3)= -2.52528904E-03  sigma(2 1)=  0.00000000E+00


 scprqt:  WARNING -
  nstep=   15 was not enough SCF cycles to converge;
  maximum residual=  2.868E-15 exceeds tolwfr=  1.000E-22

================================================================================

 ----iterations are completed or convergence reached----

 Mean square residual over all n,k,spin=   6.1120E-16; max=  2.8682E-15
   0.0000  0.0000  0.5000    1  2.86823E-15 kpt; spin; max resid(k); each band:
  1.86E-15 2.44E-16 1.25E-16 1.10E-15 9.75E-18 9.75E-18 2.87E-15 7.53E-18
  7.53E-18 3.72E-18 3.72E-18 8.11E-16 9.97E-16 4.69E-18 4.69E-18 1.73E-15
 reduced coordinates (array xred) for    8 atoms
       0.000000000000      0.000000000000      0.000000000000
       0.000000000000      0.000000000000      0.050000000000
       0.000000000000      0.000000000000      0.250000000000
       0.000000000000      0.000000000000      0.300000000000
       0.000000000000      0.000000000000      0.500000000000
       0.000000000000      0.000000000000      0.550000000000
       0.000000000000      0.000000000000      0.750000000000
       0.000000000000      0.000000000000      0.800000000000
 rms dE/dt=  4.0255E+01; max dE/dt=  7.0216E+01; dE/dt below (all hartree)
    1       0.000000000000     -0.000000000000     69.701987124725
    2       0.000000000000     -0.000000000000    -69.856040124137
    3       0.000000000000     -0.000000000000     69.231304660648
    4       0.000000000000     -0.000000000000    -70.197437752551
    5       0.000000000000     -0.000000000000     69.742341418881
    6       0.000000000000     -0.000000000000    -69.590099524232
    7       0.000000000000     -0.000000000000     70.216024055458
    8       0.000000000000     -0.000000000000    -69.248315449904

 cartesian coordinates (angstrom) at end:
    1      0.00000000000000     0.00000000000000     0.00000000000000
    2      0.00000000000000     0.00000000000000     1.32294302147500
    3      0.00000000000000     0.00000000000000     6.61471510737500
    4      0.00000000000000     0.00000000000000     7.93765812885000
    5      0.00000000000000     0.00000000000000    13.22943021475000
    6      0.00000000000000     0.00000000000000    14.55237323622500
    7      0.00000000000000     0.00000000000000    19.84414532212500
    8      0.00000000000000     0.00000000000000    21.16708834360000

 cartesian forces (hartree/bohr) at end:
    1     -0.00000000000000     0.00000000000000    -1.39404033147229
    2      0.00000000000000     0.00000000000000     1.39712021350495
    3      0.00000000000000     0.00000000000000    -1.38462668219073
    4     -0.00000000000000    -0.00000000000000     1.40394816607324
    5     -0.00000000000000    -0.00000000000000    -1.39484741735540
    6      0.00000000000000    -0.00000000000000     1.39180140150686
    7     -0.00000000000000     0.00000000000000    -1.40432107008694
    8     -0.00000000000000    -0.00000000000000     1.38496572002031
 frms,max,avg= 8.0510126E-01 1.4043211E+00   0.000E+00  0.000E+00  5.890E-07 h/b

 cartesian forces (eV/Angstrom) at end:
    1     -0.00000000000001     0.00000000000000   -71.68443001747772
    2      0.00000000000002     0.00000000000000    71.84280390598587
    3      0.00000000000001     0.00000000000000   -71.20036074925217
    4     -0.00000000000001    -0.00000000000000    72.19391131442599
    5     -0.00000000000001    -0.00000000000001   -71.72593203876082
    6      0.00000000000001    -0.00000000000000    71.56929961931264
    7     -0.00000000000001     0.00000000000000   -72.21308680818295
    8     -0.00000000000000    -0.00000000000000    71.21779477394914
 frms,max,avg= 4.1399968E+01 7.2213087E+01   0.000E+00  0.000E+00  3.029E-05 e/A
 length scales= 10.000000000000 10.000000000000 50.000000000000 bohr
              =  5.291772085900  5.291772085900 26.458860429500 angstroms
 prteigrs : about to open file t01o_DS2_EIG
 Fermi (or HOMO) energy (hartree) =  -0.21072   Average Vxc (hartree)=  -0.14742
 Eigenvalues (hartree) for nkpt=   1  k points:
 kpt#   1, nband= 16, wtk=  1.00000, kpt=  0.0000  0.0000  0.5000 (reduced coord)
  -0.47198  -0.46381  -0.46091  -0.45266  -0.23687  -0.23687  -0.23362  -0.22903
  -0.22903  -0.22611  -0.22611  -0.22501  -0.21913  -0.21819  -0.21819  -0.21072
 Total charge density [el/Bohr^3]
,     Maximum=    9.3709E-02  at reduced coord.    0.0000    0.8750    0.7813
,Next maximum=    9.3709E-02  at reduced coord.    0.0000    0.1250    0.7813
,     Minimum=    1.9015E-05  at reduced coord.    0.5000    0.5000    0.1875
,Next minimum=    1.9139E-05  at reduced coord.    0.5000    0.5000    0.8594
,  Integrated=    3.2000E+01

--------------------------------------------------------------------------------
 Components of total free energy (in Hartree) :

    Kinetic energy  =  1.18424232837027E+01
    Hartree energy  =  1.44559622881256E+01
    XC energy       = -9.12900859671717E+00
    Ewald energy    = -7.24574705155022E+00
    PspCore energy  =  1.44248703173915E+00
    Loc. psp. energy= -3.71009678241749E+01
    NL   psp  energy= -8.65466769899930E-01
    >>>>>>>>> Etotal= -2.66003176387747E+01

 Other information on the energy :
    Total energy(eV)= -7.23831454066628E+02 ; Band energy (Ha)=  -9.1164779503E+00
--------------------------------------------------------------------------------

 Cartesian components of stress tensor (hartree/bohr^3)
  sigma(1 1)=  3.13103108E-04  sigma(3 2)=  0.00000000E+00
  sigma(2 2)=  3.13103108E-04  sigma(3 1)=  0.00000000E+00
  sigma(3 3)= -2.52528904E-03  sigma(2 1)=  0.00000000E+00

-Cartesian components of stress tensor (GPa)         [Pressure=  1.8624E+01 GPa]
- sigma(1 1)=  9.21180991E+00  sigma(3 2)=  0.00000000E+00
- sigma(2 2)=  9.21180991E+00  sigma(3 1)=  0.00000000E+00
- sigma(3 3)= -7.42965561E+01  sigma(2 1)=  0.00000000E+00

================================================================================
== DATASET  3 ==================================================================
-   nproc =    1

 mkfilename : getwfk/=0, take file _WFK from output of DATASET   1.

 Exchange-correlation functional for the present dataset will be:
  LDA: old Teter (4/91) fit to Ceperley-Alder data - ixc=3

 Real(R)+Recip(G) space primitive vectors, cartesian coordinates (Bohr,Bohr^-1):
 R(1)= 10.0000000  0.0000000  0.0000000  G(1)=  0.1000000  0.0000000  0.0000000
 R(2)=  0.0000000 10.0000000  0.0000000  G(2)=  0.0000000  0.1000000  0.0000000
 R(3)=  0.0000000  0.0000000 50.0000000  G(3)=  0.0000000  0.0000000  0.0200000
 Unit cell volume ucvol=  5.0000000E+03 bohr^3
 Angles (23,13,12)=  9.00000000E+01  9.00000000E+01  9.00000000E+01 degrees

 getcut: wavevector=  0.0000  0.0000  0.0000  ngfft=  16  16  64
         ecut(hartree)=      2.000   => boxcut(ratio)=   2.01062
--------------------------------------------------------------------------------

-inwffil : will read wavefunctions from disk file t01o_DS1_WFK
P newkpt: treating     16 bands with npw=     332 for ikpt=   1 by node    0

_setup2: Arith. and geom. avg. npw (full set) are     664.000     664.000

================================================================================

     iter   Etot(hartree)      deltaE(h)  residm     vres2
 ETOT  1  -26.599829006784    -2.660E+01 3.681E-11 4.411E-01
 ETOT  2  -26.599703330010     1.257E-04 3.014E-10 8.848E-01
 ETOT  3  -26.599972984880    -2.697E-04 7.388E-07 1.183E-03
 ETOT  4  -26.599973364416    -3.795E-07 1.250E-09 6.566E-06
 ETOT  5  -26.599973364401     1.479E-11 3.912E-11 4.419E-06
 ETOT  6  -26.599973367078    -2.677E-09 4.744E-12 9.812E-07
 ETOT  7  -26.599973367318    -2.400E-10 3.540E-12 1.269E-06
 ETOT  8  -26.599973367653    -3.349E-10 1.362E-12 1.473E-07
 ETOT  9  -26.599973367557     9.544E-11 4.145E-13 2.281E-07
 ETOT 10  -26.599973367782    -2.247E-10 1.635E-13 1.270E-08
 ETOT 11  -26.599973367778     3.464E-12 5.591E-14 2.048E-08
 ETOT 12  -26.599973367784    -5.581E-12 2.140E-14 1.765E-09
 ETOT 13  -26.599973367783     1.123E-12 4.941E-15 2.512E-09
 ETOT 14  -26.599973367785    -2.252E-12 2.063E-15 1.517E-10
 ETOT 15  -26.599973367786    -8.100E-13 6.549E-16 2.726E-10

 Cartesian components of stress tensor (hartree/bohr^3)
  sigma(1 1)=  3.12987444E-04  sigma(3 2)=  0.00000000E+00
  sigma(2 2)=  3.12987444E-04  sigma(3 1)=  0.00000000E+00
  sigma(3 3)= -2.52556091E-03  sigma(2 1)=  0.00000000E+00


 scprqt:  WARNING -
  nstep=   15 was not enough SCF cycles to converge;
  maximum residual=  6.549E-16 exceeds tolwfr=  1.000E-22

================================================================================

 ----iterations are completed or convergence reached----

 Mean square residual over all n,k,spin=   4.0104E-16; max=  6.5489E-16
   0.0000  0.0000  0.5000    1  6.54889E-16 kpt; spin; max resid(k); each band:
  4.74E-16 4.92E-16 5.34E-16 4.12E-16 2.06E-16 2.06E-16 6.55E-16 3.21E-16
  3.21E-16 5.28E-16 3.18E-16 3.18E-16 2.09E-16 2.09E-16 6.38E-16 5.76E-16
 reduced coordinates (array xred) for    8 atoms
       0.000000000000      0.000000000000      0.000000000000
       0.000000000000      0.000000000000      0.050000000000
       0.000000000000      0.000000000000      0.250000000000
       0.000000000000      0.000000000000      0.300000000000
       0.000000000000      0.000000000000      0.500000000000
       0.000000000000      0.000000000000      0.550000000000
       0.000000000000      0.000000000000      0.750000000000
       0.000000000000      0.000000000000      0.800000000000
 rms dE/dt=  4.0254E+01; max dE/dt=  6.9770E+01; dE/dt below (all hartree)
    1       0.000000000000     -0.000000000000     69.719118327100
    2       0.000000000000     -0.000000000000    -69.734500452434
    3       0.000000000000     -0.000000000000     69.671891856593
    4       0.000000000000     -0.000000000000    -69.768632330643
    5       0.000000000000     -0.000000000000     69.723116837979
    6       0.000000000000     -0.000000000000    -69.707870526774
    7       0.000000000000     -0.000000000000     69.770374861599
    8       0.000000000000     -0.000000000000    -69.673733839930

 cartesian coordinates (angstrom) at end:
    1      0.00000000000000     0.00000000000000     0.00000000000000
    2      0.00000000000000     0.00000000000000     1.32294302147500
    3      0.00000000000000     0.00000000000000     6.61471510737500
    4      0.00000000000000     0.00000000000000     7.93765812885000
    5      0.00000000000000     0.00000000000000    13.22943021475000
    6      0.00000000000000     0.00000000000000    14.55237323622500
    7      0.00000000000000     0.00000000000000    19.84414532212500
    8      0.00000000000000     0.00000000000000    21.16708834360000

 cartesian forces (hartree/bohr) at end:
    1     -0.00000000000000     0.00000000000000    -1.39438295470827
    2      0.00000000000000    -0.00000000000000     1.39468942088241
    3     -0.00000000000000     0.00000000000000    -1.39343842529813
    4      0.00000000000000     0.00000000000000     1.39537205844658
    5     -0.00000000000000    -0.00000000000000    -1.39446292492585
    6      0.00000000000000    -0.00000000000000     1.39415682236920
    7     -0.00000000000000     0.00000000000000    -1.39540808539826
    8      0.00000000000000     0.00000000000000     1.39347408863233
 frms,max,avg= 8.0507065E-01 1.3954081E+00   0.000E+00  0.000E+00  5.882E-07 h/b

 cartesian forces (eV/Angstrom) at end:
    1     -0.00000000000001     0.00000000000000   -71.70204841116949
    2      0.00000000000001    -0.00000000000000    71.71780753414261
    3     -0.00000000000001     0.00000000000000   -71.65347876015433
    4      0.00000000000001     0.00000000000000    71.75291016610444
    5     -0.00000000000001    -0.00000000000001   -71.70616064475165
    6      0.00000000000001    -0.00000000000000    71.69042021973995
    7     -0.00000000000001     0.00000000000001   -71.75476274629067
    8      0.00000000000001     0.00000000000000    71.65531264237913
 frms,max,avg= 4.1398394E+01 7.1754763E+01   0.000E+00  0.000E+00  3.024E-05 e/A
 length scales= 10.000000000000 10.000000000000 50.000000000000 bohr
              =  5.291772085900  5.291772085900 26.458860429500 angstroms
 prteigrs : about to open file t01o_DS3_EIG
 Fermi (or HOMO) energy (hartree) =  -0.21607   Average Vxc (hartree)=  -0.14741
 Eigenvalues (hartree) for nkpt=   1  k points:
 kpt#   1, nband= 16, wtk=  1.00000, kpt=  0.0000  0.0000  0.5000 (reduced coord)
  -0.46480  -0.46387  -0.46077  -0.45983  -0.22874  -0.22874  -0.22814  -0.22782
  -0.22782  -0.22724  -0.22724  -0.22724  -0.22633  -0.22633  -0.21693  -0.21607
 Total charge density [el/Bohr^3]
,     Maximum=    9.3658E-02  at reduced coord.    0.0000    0.8750    0.7813
,Next maximum=    9.3658E-02  at reduced coord.    0.0000    0.1250    0.7813
,     Minimum=    1.9764E-05  at reduced coord.    0.5000    0.5000    0.1875
,Next minimum=    1.9810E-05  at reduced coord.    0.5000    0.5000    0.9375
,  Integrated=    3.2000E+01

--------------------------------------------------------------------------------
 Components of total free energy (in Hartree) :

    Kinetic energy  =  1.18425212870026E+01
    Hartree energy  =  1.44563346119621E+01
    XC energy       = -9.12914293101514E+00
    Ewald energy    = -7.24574705155022E+00
    PspCore energy  =  1.44248703173915E+00
    Loc. psp. energy= -3.71009993666034E+01
    NL   psp  energy= -8.65426949320989E-01
    >>>>>>>>> Etotal= -2.65999733677860E+01

 Other information on the energy :
    Total energy(eV)= -7.23822085976602E+02 ; Band energy (Ha)=  -9.1158023351E+00
--------------------------------------------------------------------------------

 Cartesian components of stress tensor (hartree/bohr^3)
  sigma(1 1)=  3.12987444E-04  sigma(3 2)=  0.00000000E+00
  sigma(2 2)=  3.12987444E-04  sigma(3 1)=  0.00000000E+00
  sigma(3 3)= -2.52556091E-03  sigma(2 1)=  0.00000000E+00

-Cartesian components of stress tensor (GPa)         [Pressure=  1.8629E+01 GPa]
- sigma(1 1)=  9.20840697E+00  sigma(3 2)=  0.00000000E+00
- sigma(2 2)=  9.20840697E+00  sigma(3 1)=  0.00000000E+00
- sigma(3 3)= -7.43045548E+01  sigma(2 1)=  0.00000000E+00

================================================================================
== DATASET  4 ==================================================================
-   nproc =    1

 mkfilename : getwfk/=0, take file _WFK from output of DATASET   1.

 Exchange-correlation functional for the present dataset will be:
  LDA: old Teter (4/91) fit to Ceperley-Alder data - ixc=3

 Real(R)+Recip(G) space primitive vectors, cartesian coordinates (Bohr,Bohr^-1):
 R(1)= 10.0000000  0.0000000  0.0000000  G(1)=  0.1000000  0.0000000  0.0000000
 R(2)=  0.0000000 10.0000000  0.0000000  G(2)=  0.0000000  0.1000000  0.0000000
 R(3)=  0.0000000  0.0000000 50.0000000  G(3)=  0.0000000  0.0000000  0.0200000
 Unit cell volume ucvol=  5.0000000E+03 bohr^3
 Angles (23,13,12)=  9.00000000E+01  9.00000000E+01  9.00000000E+01 degrees

 getcut: wavevector=  0.0000  0.0000  0.0000  ngfft=  16  16  64
         ecut(hartree)=      2.000   => boxcut(ratio)=   2.01062
--------------------------------------------------------------------------------

-inwffil : will read wavefunctions from disk file t01o_DS1_WFK
P newkpt: treating     16 bands with npw=     332 for ikpt=   1 by node    0

_setup2: Arith. and geom. avg. npw (full set) are     664.000     664.000

================================================================================

     iter   Etot(hartree)      deltaE(h)  residm     vres2
 ETOT  1  -26.599968481201    -2.660E+01 1.633E-13 4.427E-03
 ETOT  2  -26.599967247475     1.234E-06 6.319E-13 8.800E-03
 ETOT  3  -26.599969926056    -2.679E-06 7.313E-09 1.202E-05
 ETOT  4  -26.599969929909    -3.853E-09 1.202E-11 4.929E-08
 ETOT  5  -26.599969929924    -1.575E-11 1.110E-13 9.155E-09
 ETOT  6  -26.599969929927    -2.856E-12 8.386E-15 5.534E-10
 ETOT  7  -26.599969929928    -4.441E-13 1.302E-15 4.642E-10
 ETOT  8  -26.599969929928     3.553E-15 4.529E-16 1.002E-10
 ETOT  9  -26.599969929928    -5.400E-13 3.162E-16 1.117E-10
 ETOT 10  -26.599969929928     5.898E-13 1.382E-16 2.077E-11
 ETOT 11  -26.599969929928    -1.066E-13 5.228E-17 2.588E-11
 ETOT 12  -26.599969929928     2.451E-13 2.366E-17 3.559E-12
 ETOT 13  -26.599969929927     1.883E-13 1.232E-17 4.499E-12
 ETOT 14  -26.599969929929    -1.172E-12 5.509E-18 9.906E-13
 ETOT 15  -26.599969929928     3.126E-13 2.435E-18 1.022E-12

 Cartesian components of stress tensor (hartree/bohr^3)
  sigma(1 1)=  3.12986291E-04  sigma(3 2)=  0.00000000E+00
  sigma(2 2)=  3.12986291E-04  sigma(3 1)=  0.00000000E+00
  sigma(3 3)= -2.52556362E-03  sigma(2 1)=  0.00000000E+00


 scprqt:  WARNING -
  nstep=   15 was not enough SCF cycles to converge;
  maximum residual=  2.435E-18 exceeds tolwfr=  1.000E-22

================================================================================

 ----iterations are completed or convergence reached----

 Mean square residual over all n,k,spin=   1.2282E-18; max=  2.4350E-18
   0.0000  0.0000  0.5000    1  2.43499E-18 kpt; spin; max resid(k); each band:
  1.43E-18 1.38E-18 1.48E-18 1.42E-18 5.76E-19 5.76E-19 5.72E-19 5.72E-19
  2.31E-18 2.14E-18 5.92E-19 5.92E-19 5.94E-19 5.94E-19 2.43E-18 2.39E-18
 reduced coordinates (array xred) for    8 atoms
       0.000000000000      0.000000000000      0.000000000000
       0.000000000000      0.000000000000      0.050000000000
       0.000000000000      0.000000000000      0.250000000000
       0.000000000000      0.000000000000      0.300000000000
       0.000000000000      0.000000000000      0.500000000000
       0.000000000000      0.000000000000      0.550000000000
       0.000000000000      0.000000000000      0.750000000000
       0.000000000000      0.000000000000      0.800000000000
 rms dE/dt=  4.0254E+01; max dE/dt=  6.9726E+01; dE/dt below (all hartree)
    1       0.000000000000     -0.000000000000     69.720907772046
    2       0.000000000000     -0.000000000000    -69.722498067435
    3       0.000000000000     -0.000000000000     69.716183602913
    4       0.000000000000     -0.000000000000    -69.725911530193
    5       0.000000000000     -0.000000000000     69.721307604271
    6       0.000000000000     -0.000000000000    -69.719835030250
    7       0.000000000000     -0.000000000000     69.726031995549
    8       0.000000000000     -0.000000000000    -69.716421612234

 cartesian coordinates (angstrom) at end:
    1      0.00000000000000     0.00000000000000     0.00000000000000
    2      0.00000000000000     0.00000000000000     1.32294302147500
    3      0.00000000000000     0.00000000000000     6.61471510737500
    4      0.00000000000000     0.00000000000000     7.93765812885000
    5      0.00000000000000     0.00000000000000    13.22943021475000
    6      0.00000000000000     0.00000000000000    14.55237323622500
    7      0.00000000000000     0.00000000000000    19.84414532212500
    8      0.00000000000000     0.00000000000000    21.16708834360000

 cartesian forces (hartree/bohr) at end:
    1     -0.00000000000000     0.00000000000000    -1.39441874360425
    2      0.00000000000000     0.00000000000000     1.39444937318537
    3     -0.00000000000000    -0.00000000000000    -1.39432426022159
    4      0.00000000000000     0.00000000000000     1.39451764244052
    5     -0.00000000000000    -0.00000000000000    -1.39442674024875
    6      0.00000000000000    -0.00000000000000     1.39439611244167
    7     -0.00000000000000     0.00000000000000    -1.39452122807431
    8      0.00000000000000     0.00000000000000     1.39432784408134
 frms,max,avg= 8.0507035E-01 1.3945212E+00   0.000E+00  0.000E+00  5.882E-07 h/b

 cartesian forces (eV/Angstrom) at end:
    1     -0.00000000000001     0.00000000000000   -71.70388875003997
    2      0.00000000000001     0.00000000000000    71.70546378629599
    3     -0.00000000000002    -0.00000000000000   -71.69903021956657
    4      0.00000000000002     0.00000000000000    71.70897433224862
    5     -0.00000000000001    -0.00000000000001   -71.70429995399921
    6      0.00000000000001    -0.00000000000000    71.70272500896802
    7     -0.00000000000001     0.00000000000000   -71.70915871293607
    8      0.00000000000001     0.00000000000001    71.69921450902920
 frms,max,avg= 4.1398378E+01 7.1709159E+01   0.000E+00  0.000E+00  3.024E-05 e/A
 length scales= 10.000000000000 10.000000000000 50.000000000000 bohr
              =  5.291772085900  5.291772085900 26.458860429500 angstroms
 prteigrs : about to open file t01o_DS4_EIG
 Fermi (or HOMO) energy (hartree) =  -0.21648   Average Vxc (hartree)=  -0.14741
 Eigenvalues (hartree) for nkpt=   1  k points:
 kpt#   1, nband= 16, wtk=  1.00000, kpt=  0.0000  0.0000  0.5000 (reduced coord)
  -0.46433  -0.46423  -0.46040  -0.46031  -0.22815  -0.22815  -0.22805  -0.22805
  -0.22772  -0.22763  -0.22701  -0.22701  -0.22691  -0.22691  -0.21656  -0.21648
 Total charge density [el/Bohr^3]
,     Maximum=    9.3653E-02  at reduced coord.    0.0000    0.8750    0.7813
,Next maximum=    9.3653E-02  at reduced coord.    0.0000    0.1250    0.7813
,     Minimum=    1.9844E-05  at reduced coord.    0.5000    0.5000    0.1875
,Next minimum=    1.9849E-05  at reduced coord.    0.5000    0.5000    0.9375
,  Integrated=    3.2000E+01

--------------------------------------------------------------------------------
 Components of total free energy (in Hartree) :

    Kinetic energy  =  1.18425222905031E+01
    Hartree energy  =  1.44563383320792E+01
    XC energy       = -9.12914427089253E+00
    Ewald energy    = -7.24574705155022E+00
    PspCore energy  =  1.44248703173915E+00
    Loc. psp. energy= -3.71009997053605E+01
    NL   psp  energy= -8.65426556446420E-01
    >>>>>>>>> Etotal= -2.65999699299282E+01

 Other information on the energy :
    Total energy(eV)= -7.23821992427735E+02 ; Band energy (Ha)=  -9.1157955860E+00
--------------------------------------------------------------------------------

 Cartesian components of stress tensor (hartree/bohr^3)
  sigma(1 1)=  3.12986291E-04  sigma(3 2)=  0.00000000E+00
  sigma(2 2)=  3.12986291E-04  sigma(3 1)=  0.00000000E+00
  sigma(3 3)= -2.52556362E-03  sigma(2 1)=  0.00000000E+00

-Cartesian components of stress tensor (GPa)         [Pressure=  1.8629E+01 GPa]
- sigma(1 1)=  9.20837305E+00  sigma(3 2)=  0.00000000E+00
- sigma(2 2)=  9.20837305E+00  sigma(3 1)=  0.00000000E+00
- sigma(3 3)= -7.43046346E+01  sigma(2 1)=  0.00000000E+00

================================================================================
== DATASET  5 ==================================================================
-   nproc =    1

 mkfilename : getwfk/=0, take file _WFK from output of DATASET   1.

 Exchange-correlation functional for the present dataset will be:
  LDA: old Teter (4/91) fit to Ceperley-Alder data - ixc=3

 Real(R)+Recip(G) space primitive vectors, cartesian coordinates (Bohr,Bohr^-1):
 R(1)= 10.0000000  0.0000000  0.0000000  G(1)=  0.1000000  0.0000000  0.0000000
 R(2)=  0.0000000 10.0000000  0.0000000  G(2)=  0.0000000  0.1000000  0.0000000
 R(3)=  0.0000000  0.0000000 50.0000000  G(3)=  0.0000000  0.0000000  0.0200000
 Unit cell volume ucvol=  5.0000000E+03 bohr^3
 Angles (23,13,12)=  9.00000000E+01  9.00000000E+01  9.00000000E+01 degrees

 getcut: wavevector=  0.0000  0.0000  0.0000  ngfft=  16  16  64
         ecut(hartree)=      2.000   => boxcut(ratio)=   2.01062
--------------------------------------------------------------------------------

-inwffil : will read wavefunctions from disk file t01o_DS1_WFK
P newkpt: treating     16 bands with npw=     332 for ikpt=   1 by node    0

_setup2: Arith. and geom. avg. npw (full set) are     664.000     664.000

================================================================================

     iter   Etot(hartree)      deltaE(h)  residm     vres2
 ETOT  1  -26.599829106452    -2.660E+01 5.086E-11 4.408E-01
 ETOT  2  -26.599703491393     1.256E-04 3.010E-10 8.843E-01
 ETOT  3  -26.599972984854    -2.695E-04 7.382E-07 1.182E-03
 ETOT  4  -26.599973364439    -3.796E-07 1.246E-09 6.488E-06
 ETOT  5  -26.599973364407     3.194E-11 3.876E-11 4.405E-06
 ETOT  6  -26.599973367084    -2.676E-09 4.715E-12 9.752E-07
 ETOT  7  -26.599973367322    -2.382E-10 3.525E-12 1.262E-06
 ETOT  8  -26.599973367654    -3.317E-10 1.355E-12 1.463E-07
 ETOT  9  -26.599973367559     9.469E-11 4.116E-13 2.265E-07
 ETOT 10  -26.599973367782    -2.233E-10 1.624E-13 1.255E-08
 ETOT 11  -26.599973367778     3.890E-12 5.532E-14 2.028E-08
 ETOT 12  -26.599973367784    -5.706E-12 2.117E-14 1.738E-09
 ETOT 13  -26.599973367783     8.917E-13 4.870E-15 2.475E-09
 ETOT 14  -26.599973367786    -2.533E-12 2.032E-15 1.490E-10
 ETOT 15  -26.599973367785     3.340E-13 6.434E-16 2.679E-10

 Cartesian components of stress tensor (hartree/bohr^3)
  sigma(1 1)=  3.12987444E-04  sigma(3 2)=  0.00000000E+00
  sigma(2 2)=  3.12987444E-04  sigma(3 1)=  0.00000000E+00
  sigma(3 3)= -2.52556091E-03  sigma(2 1)=  0.00000000E+00


 scprqt:  WARNING -
  nstep=   15 was not enough SCF cycles to converge;
  maximum residual=  6.434E-16 exceeds tolwfr=  1.000E-22

================================================================================

 ----iterations are completed or convergence reached----

 Mean square residual over all n,k,spin=   3.9386E-16; max=  6.4343E-16
   0.0000  0.0000  0.5000    1  6.43426E-16 kpt; spin; max resid(k); each band:
  4.66E-16 4.83E-16 5.24E-16 4.05E-16 2.02E-16 2.02E-16 6.43E-16 3.15E-16
  3.15E-16 5.19E-16 3.13E-16 3.13E-16 2.05E-16 2.05E-16 6.27E-16 5.66E-16
 reduced coordinates (array xred) for    8 atoms
       0.000000000000      0.000000000000      0.000000000000
       0.000000000000      0.000000000000      0.050000000000
       0.000000000000      0.000000000000      0.250000000000
       0.000000000000      0.000000000000      0.300000000000
       0.000000000000      0.000000000000      0.500000000000
       0.000000000000      0.000000000000      0.550000000000
       0.000000000000      0.000000000000      0.750000000000
       0.000000000000      0.000000000000      0.800000000000
 rms dE/dt=  4.0254E+01; max dE/dt=  6.9770E+01; dE/dt below (all hartree)
    1       0.000000000000     -0.000000000000     69.723116841330
    2       0.000000000000     -0.000000000000    -69.707870523631
    3       0.000000000000     -0.000000000000     69.770374861246
    4       0.000000000000     -0.000000000000    -69.673733840256
    5       0.000000000000     -0.000000000000     69.719118329068
    6       0.000000000000     -0.000000000000    -69.734500450326
    7       0.000000000000     -0.000000000000     69.671891851612
    8       0.000000000000     -0.000000000000    -69.768632335659

 cartesian coordinates (angstrom) at end:
    1      0.00000000000000     0.00000000000000     0.00000000000000
    2      0.00000000000000     0.00000000000000     1.32294302147500
    3      0.00000000000000     0.00000000000000     6.61471510737500
    4      0.00000000000000     0.00000000000000     7.93765812885000
    5      0.00000000000000     0.00000000000000    13.22943021475000
    6      0.00000000000000     0.00000000000000    14.55237323622500
    7      0.00000000000000     0.00000000000000    19.84414532212500
    8      0.00000000000000     0.00000000000000    21.16708834360000

 cartesian forces (hartree/bohr) at end:
    1     -0.00000000000000     0.00000000000000    -1.39446292499314
    2      0.00000000000000    -0.00000000000000     1.39415682230608
    3     -0.00000000000000     0.00000000000000    -1.39540808539146
    4      0.00000000000000    -0.00000000000000     1.39347408863858
    5     -0.00000000000000    -0.00000000000000    -1.39438295474790
    6      0.00000000000000    -0.00000000000000     1.39468942083997
    7     -0.00000000000000     0.00000000000000    -1.39343842519878
    8      0.00000000000000    -0.00000000000000     1.39537205854664
 frms,max,avg= 8.0507065E-01 1.3954081E+00   0.000E+00  0.000E+00  5.882E-07 h/b

 cartesian forces (eV/Angstrom) at end:
    1     -0.00000000000001     0.00000000000001   -71.70616064821141
    2      0.00000000000002    -0.00000000000000    71.69042021649447
    3     -0.00000000000001     0.00000000000001   -71.75476274594105
    4      0.00000000000001    -0.00000000000000    71.65531264270055
    5     -0.00000000000001    -0.00000000000001   -71.70204841320742
    6      0.00000000000001    -0.00000000000001    71.71780753196032
    7     -0.00000000000001     0.00000000000001   -71.65347875504558
    8      0.00000000000001    -0.00000000000000    71.75291017125009
 frms,max,avg= 4.1398394E+01 7.1754763E+01   0.000E+00  0.000E+00  3.024E-05 e/A
 length scales= 10.000000000000 10.000000000000 50.000000000000 bohr
              =  5.291772085900  5.291772085900 26.458860429500 angstroms
 prteigrs : about to open file t01o_DS5_EIG
 Fermi (or HOMO) energy (hartree) =  -0.21607   Average Vxc (hartree)=  -0.14741
 Eigenvalues (hartree) for nkpt=   1  k points:
 kpt#   1, nband= 16, wtk=  1.00000, kpt=  0.0000  0.0000  0.5000 (reduced coord)
  -0.46480  -0.46387  -0.46077  -0.45983  -0.22874  -0.22874  -0.22814  -0.22782
  -0.22782  -0.22724  -0.22724  -0.22724  -0.22633  -0.22633  -0.21693  -0.21607
 Total charge density [el/Bohr^3]
,     Maximum=    9.3658E-02  at reduced coord.    0.0000    0.8750    0.2813
,Next maximum=    9.3658E-02  at reduced coord.    0.0000    0.1250    0.2813
,     Minimum=    1.9764E-05  at reduced coord.    0.5000    0.5000    0.6875
,Next minimum=    1.9810E-05  at reduced coord.    0.5000    0.5000    0.4375
,  Integrated=    3.2000E+01

--------------------------------------------------------------------------------
 Components of total free energy (in Hartree) :

    Kinetic energy  =  1.18425212870025E+01
    Hartree energy  =  1.44563346119643E+01
    XC energy       = -9.12914293101464E+00
    Ewald energy    = -7.24574705155022E+00
    PspCore energy  =  1.44248703173915E+00
    Loc. psp. energy= -3.71009993666051E+01
    NL   psp  energy= -8.65426949321295E-01
    >>>>>>>>> Etotal= -2.65999733677853E+01

 Other information on the energy :
    Total energy(eV)= -7.23822085976582E+02 ; Band energy (Ha)=  -9.1158023351E+00
--------------------------------------------------------------------------------

 Cartesian components of stress tensor (hartree/bohr^3)
  sigma(1 1)=  3.12987444E-04  sigma(3 2)=  0.00000000E+00
  sigma(2 2)=  3.12987444E-04  sigma(3 1)=  0.00000000E+00
  sigma(3 3)= -2.52556091E-03  sigma(2 1)=  0.00000000E+00

-Cartesian components of stress tensor (GPa)         [Pressure=  1.8629E+01 GPa]
- sigma(1 1)=  9.20840697E+00  sigma(3 2)=  0.00000000E+00
- sigma(2 2)=  9.20840697E+00  sigma(3 1)=  0.00000000E+00
- sigma(3 3)= -7.43045548E+01  sigma(2 1)=  0.00000000E+00

== END DATASET(S) ==============================================================
================================================================================
  
 -outvars: echo values of variables after computation  --------
            acell      1.0000000000E+01  1.0000000000E+01  5.0000000000E+01 Bohr
              amu      2.80855000E+01
           diecut      1.20000000E+00 Hartree
           diegap      2.00000000E-01 Hartree
             ecut      2.00000000E+00 Hartree
           etotal1    -2.6599969895E+01
           etotal2    -2.6600317639E+01
           etotal3    -2.6599973368E+01
           etotal4    -2.6599969930E+01
           etotal5    -2.6599973368E+01
            fcart1     4.4366191293E-14 -1.1668441693E-13 -1.3944227303E+00
                      -1.9154620555E-14  1.4711816746E-13  1.3944227494E+00
                      -8.0248375618E-15 -5.1942344479E-14 -1.3944227494E+00
                       4.0169058790E-14  3.6036445407E-14  1.3944227305E+00
                      -1.6310402160E-13  1.9140586854E-14 -1.3944227490E+00
                       1.3634163007E-13 -1.5617258529E-14  1.3944227291E+00
                       1.0839845686E-13 -1.1063734009E-13 -1.3944227291E+00
                      -1.3899185730E-13  9.2586160311E-14  1.3944227488E+00
            fcart2    -2.1252961756E-16  8.8641516955E-17 -1.3940403315E+00
                       3.7322141052E-16  5.7114419977E-17  1.3971202135E+00
                       1.6985496214E-16  8.7428951372E-17 -1.3846266822E+00
                      -1.8152144591E-16 -2.8966118461E-17  1.4039481661E+00
                      -1.8967708241E-16 -1.5412847850E-16 -1.3948474174E+00
                       2.4069661803E-16 -7.1489122274E-17  1.3918014015E+00
                      -1.1439769919E-16  8.9867900368E-17 -1.4043210701E+00
                      -8.5647145619E-17 -6.8469069436E-17  1.3849657200E+00
            fcart3    -1.7930847377E-16  6.1947277851E-17 -1.3943829547E+00
                       2.1128947227E-16 -3.6514891835E-17  1.3946894209E+00
                      -1.6305033420E-16  6.9864552174E-17 -1.3934384253E+00
                       1.9890357026E-16  8.7464791790E-18  1.3953720584E+00
                      -2.0126513613E-16 -2.7078040482E-16 -1.3944629249E+00
                       2.7133763896E-16 -6.5654778259E-17  1.3941568224E+00
                      -2.7262379252E-16  1.4629257386E-16 -1.3954080854E+00
                       1.3471705514E-16  8.6099191857E-17  1.3934740886E+00
            fcart4    -2.2551674167E-16  8.9706945523E-18 -1.3944187436E+00
                       2.6625354718E-16  5.8487516512E-17  1.3944493732E+00
                      -2.9747125717E-16 -2.1613691017E-17 -1.3943242602E+00
                       2.9636948402E-16  7.1150675044E-17  1.3945176424E+00
                      -2.5160446358E-16 -2.4326946770E-16 -1.3944267402E+00
                       2.3713746170E-16 -5.0727844494E-17  1.3943961124E+00
                      -2.5019737973E-16  7.2728921284E-17 -1.3945212281E+00
                       2.2502934926E-16  1.0427319582E-16  1.3943278441E+00
            fcart5    -2.2761099115E-16  1.3596064871E-16 -1.3944629250E+00
                       3.3174959022E-16 -9.1855146668E-17  1.3941568223E+00
                      -2.0361239627E-16  1.2148293416E-16 -1.3954080854E+00
                       2.2745702783E-16 -7.3077103211E-17  1.3934740886E+00
                      -2.7924445881E-16 -1.9716500354E-16 -1.3943829547E+00
                       1.7847400328E-16 -1.3145935215E-16  1.3946894208E+00
                      -2.5517430189E-16  2.4398996101E-16 -1.3934384252E+00
                       2.2796152680E-16 -7.8769383185E-18  1.3953720585E+00
           getwfk1          0
           getwfk2          1
           getwfk3          1
           getwfk4          1
           getwfk5          1
           iprcel          45
             iscf           3
           istwfk        4
              ixc           3
           jdtset        1    2    3    4    5
              kpt      0.00000000E+00  0.00000000E+00  5.00000000E-01
           kptopt           0
P           mkmem           1
            natom           8
            nband          16
           ndtset           5
            ngfft          16      16      64
             nkpt           1
            nstep1         30
            nstep2         15
            nstep3         15
            nstep4         15
            nstep5         15
             nsym           1
           ntypat           1
              occ      2.000000  2.000000  2.000000  2.000000  2.000000  2.000000
                       2.000000  2.000000  2.000000  2.000000  2.000000  2.000000
                       2.000000  2.000000  2.000000  2.000000
           qprtrb1          0       0       0
           qprtrb2          0       0       1
           qprtrb3          0       0       1
           qprtrb4          0       0       1
           qprtrb5          0       0       1
          spgroup           1
           strten1     3.1298627925E-04  3.1298627923E-04 -2.5255636492E-03
                       0.0000000000E+00  0.0000000000E+00  0.0000000000E+00
           strten2     3.1310310762E-04  3.1310310760E-04 -2.5252890375E-03
                       0.0000000000E+00  0.0000000000E+00  0.0000000000E+00
           strten3     3.1298744411E-04  3.1298744410E-04 -2.5255609086E-03
                       0.0000000000E+00  0.0000000000E+00  0.0000000000E+00
           strten4     3.1298629091E-04  3.1298629089E-04 -2.5255636218E-03
                       0.0000000000E+00  0.0000000000E+00  0.0000000000E+00
           strten5     3.1298744412E-04  3.1298744410E-04 -2.5255609086E-03
                       0.0000000000E+00  0.0000000000E+00  0.0000000000E+00
           tolwfr      1.00000000E-22
            typat      1  1  1  1  1  1  1  1
           vprtrb1     0.00000000E+00  0.00000000E+00 Hartree
           vprtrb2     1.00000000E+02  0.00000000E+00 Hartree
           vprtrb3     1.00000000E+01  0.00000000E+00 Hartree
           vprtrb4     1.00000000E+00  0.00000000E+00 Hartree
           vprtrb5    -1.00000000E+01  0.00000000E+00 Hartree
           xangst      0.0000000000E+00  0.0000000000E+00  0.0000000000E+00
                       0.0000000000E+00  0.0000000000E+00  1.3229430215E+00
                       0.0000000000E+00  0.0000000000E+00  6.6147151074E+00
                       0.0000000000E+00  0.0000000000E+00  7.9376581288E+00
                       0.0000000000E+00  0.0000000000E+00  1.3229430215E+01
                       0.0000000000E+00  0.0000000000E+00  1.4552373236E+01
                       0.0000000000E+00  0.0000000000E+00  1.9844145322E+01
                       0.0000000000E+00  0.0000000000E+00  2.1167088344E+01
            xcart      0.0000000000E+00  0.0000000000E+00  0.0000000000E+00
                       0.0000000000E+00  0.0000000000E+00  2.5000000000E+00
                       0.0000000000E+00  0.0000000000E+00  1.2500000000E+01
                       0.0000000000E+00  0.0000000000E+00  1.5000000000E+01
                       0.0000000000E+00  0.0000000000E+00  2.5000000000E+01
                       0.0000000000E+00  0.0000000000E+00  2.7500000000E+01
                       0.0000000000E+00  0.0000000000E+00  3.7500000000E+01
                       0.0000000000E+00  0.0000000000E+00  4.0000000000E+01
             xred      0.0000000000E+00  0.0000000000E+00  0.0000000000E+00
                       0.0000000000E+00  0.0000000000E+00  5.0000000000E-02
                       0.0000000000E+00  0.0000000000E+00  2.5000000000E-01
                       0.0000000000E+00  0.0000000000E+00  3.0000000000E-01
                       0.0000000000E+00  0.0000000000E+00  5.0000000000E-01
                       0.0000000000E+00  0.0000000000E+00  5.5000000000E-01
                       0.0000000000E+00  0.0000000000E+00  7.5000000000E-01
                       0.0000000000E+00  0.0000000000E+00  8.0000000000E-01
            znucl       14.00000

================================================================================


- Timing analysis has been suppressed with timopt=0



================================================================================

 Suggested references for the acknowledgment of ABINIT usage.

 The users of ABINIT have little formal obligations with respect to the ABINIT group
 (those specified in the GNU General Public License, http://www.gnu.org/copyleft/gpl.txt).
 However, it is common practice in the scientific literature,
 to acknowledge the efforts of people that have made the research possible.
 In this spirit, please find below suggested citations of work written by ABINIT developers,
 corresponding to implementations inside of ABINIT that you have used in the present run.
 Note also that it will be of great value to readers of publications presenting these results,
 to read papers enabling them to understand the theoretical formalism and details
 of the ABINIT implementation.
 For information on why they are suggested, see also http://www.abinit.org/about/?text=acknowledgments.

 [1] Preconditioning of self-consistent-field cycles in density functional theory : the extrapolar method
 P.-M. Anglade, X. Gonze, Phys. Rev. B 78, 045126 (2008).
 Comment : to be cited in case the extrapolar conditioner is used, i.e. non-vanishing iprcel.

 [2] ABINIT : First-principles approach of materials and nanosystem properties.
 X. Gonze, B. Amadon, P.-M. Anglade, J.-M. Beuken, F. Bottin, P. Boulanger, F. Bruneval,
 D. Caliste, R. Caracas, M. Cote, T. Deutsch, L. Genovese, Ph. Ghosez, M. Giantomassi
 S. Goedecker, D.R. Hamann, P. Hermet, F. Jollet, G. Jomard, S. Leroux, M. Mancini, S. Mazevet,
 M.J.T. Oliveira, G. Onida, Y. Pouillon, T. Rangel, G.-M. Rignanese, D. Sangalli, R. Shaltaf,
 M. Torrent, M.J. Verstraete, G. Zerah, J.W. Zwanziger
 Computer Phys. Comm. 180, 2582-2615 (2009).
 Comment : the third generic paper describing the ABINIT project.
 Note that a version of this paper, that is not formatted for Computer Phys. Comm. 
 is available at http://www.abinit.org/about/ABINIT_CPC_v10.pdf .
 The licence allows the authors to put it on the Web.

 [3] A brief introduction to the ABINIT software package.
 X. Gonze, G.-M. Rignanese, M. Verstraete, J.-M. Beuken, Y. Pouillon, R. Caracas, F. Jollet,
 M. Torrent, G. Zerah, M. Mikami, Ph. Ghosez, M. Veithen, J.-Y. Raty, V. Olevano, F. Bruneval,
 L. Reining, R. Godby, G. Onida, D.R. Hamann, and D.C. Allan.
 Z. Kristallogr. 220, 558-562 (2005).
 Comment : the second generic paper describing the ABINIT project. Note that this paper
 should be cited especially if you are using the GW part of ABINIT, as several authors
 of this part are not in the list of authors of the first or third paper.
 The .pdf of the latter paper is available at http://www.abinit.org/about/zfk_0505-06_558-562.pdf.
 Note that it should not redistributed (Copyright by Oldenburg Wissenshaftverlag,
 the licence allows the authors to put it on the Web).


 And optionally :

 [4] First-principles computation of material properties : the ABINIT software project. 
 X. Gonze, J.-M. Beuken, R. Caracas, F. Detraux, M. Fuchs, G.-M. Rignanese, L. Sindic,
 M. Verstraete, G. Zerah, F. Jollet, M. Torrent, A. Roy, M. Mikami, Ph. Ghosez, J.-Y. Raty, D.C. Allan.
 Computational Materials Science 25, 478-492 (2002). http://dx.doi.org/10.1016/S0927-0256(02)00325-7
 Comment : the original paper describing the ABINIT project.

 [5] Fast radix 2, 3, 4 and 5 kernels for Fast Fourier Transformations
 on computers with overlapping multiply-add instructions.
 S. Goedecker, SIAM J. on Scientific Computing 18, 1605 (1997).
-
- Proc.   0 individual time (sec): cpu=          8.0  wall=          8.0

================================================================================

 Calculation completed.
.Delivered   16 WARNINGs and  20 COMMENTs to log file.
+Overall time at end (sec) : cpu=          8.0  wall=          8.0
