
.Version 7.9.3 of ABINIT 
.(MPI version, prepared for a x86_64_linux_intel14.0 computer) 

.Copyright (C) 1998-2014 ABINIT group . 
 ABINIT comes with ABSOLUTELY NO WARRANTY.
 It is free software, and you are welcome to redistribute it
 under certain conditions (GNU General Public License,
 see ~abinit/COPYING or http://www.gnu.org/copyleft/gpl.txt).

 ABINIT is a project of the Universite Catholique de Louvain,
 Corning Inc. and other collaborators, see ~abinit/doc/developers/contributors.txt .
 Please read ~abinit/doc/users/acknowledgments.html for suggested
 acknowledgments of the ABINIT effort.
 For more information, see http://www.abinit.org .

.Starting date : Wed  3 Sep 2014.
- ( at 18h17 )
  
- input  file    -> au107.in
- output file    -> au107.out
- root for input  files -> TMP/au107_input
- root for output files -> TMP/au107_output
 
 
 Symmetries : space group Pm -3 m (#221); Bravais cP (primitive cubic)
================================================================================
 Values of the parameters that define the memory need of the present run
   intxc =         0  ionmov =         0    iscf =        17 xclevel =         2
  lmnmax =        18   lnmax =         6   mband =       650  mffmem =         1
P  mgfft =        80   mkmem =         1 mpssoang=         3     mpw =       145
  mqgrid =      4633   natom =       107    nfft =     51200    nkpt =         1
  nloalg =         4  nspden =         1 nspinor =         1  nsppol =         1
    nsym =        48  n1xccc =         1  ntypat =         1  occopt =         3
Pmy_natom=         9
 PAW method is used; the additional fine FFT grid is defined by:
   mgfftf=       100    nfftf =    100000
================================================================================
P This job should need less than                      75.672 Mbytes of memory.
  Rough estimation (10% accuracy) of disk space for files :
_ WF disk file :     14.383 Mbytes ; DEN or POT disk file :      0.765 Mbytes.
================================================================================
 
--------------------------------------------------------------------------------
------------- Echo of variables that govern the present computation ------------
--------------------------------------------------------------------------------
-
- outvars: echo of selected default values                                      
-   accesswff0 =  0 , fftalg0 =312 , wfoptalg0 = 10
-
- outvars: echo of global parameters not present in the input file              
-  max_nthreads =    0
-
 -outvars: echo values of preprocessed input variables --------
        accesswff           1
            acell      2.3010000000E+01  2.3010000000E+01  2.3010000000E+01 Bohr
              amu      1.96966540E+02
           bandpp          50
      chksymbreak           0
             ecut      1.00000000E+01 Hartree
-          fftalg         302
      fft_opt_lob           2
           iprcch           6
           istwfk        1
              ixc          11
           kptopt           0
P           mkmem           1
            natom         107
            nband         650
           nbdbuf          20
            ngfft          80      80      80
          ngfftdg         100     100     100
             nkpt           1
-          npband          13
-           npfft          10
            nstep          20
             nsym          48
           ntypat           1
              occ      2.000000  2.000000  2.000000  2.000000  2.000000  2.000000
                       2.000000  2.000000  2.000000  2.000000  2.000000  2.000000
                       2.000000  2.000000  2.000000  2.000000  2.000000  2.000000
                       2.000000  2.000000  2.000000  2.000000  2.000000  2.000000
                       2.000000  2.000000  2.000000  2.000000  2.000000  2.000000
                       2.000000  2.000000  2.000000  2.000000  2.000000  2.000000
                       2.000000  2.000000  2.000000  2.000000  2.000000  2.000000
                       2.000000  2.000000  2.000000  2.000000  2.000000  2.000000
                       2.000000  2.000000  2.000000  2.000000  2.000000  2.000000
                       2.000000  2.000000  2.000000  2.000000  2.000000  2.000000
                       2.000000  2.000000  2.000000  2.000000  2.000000  2.000000
                       2.000000  2.000000  2.000000  2.000000  2.000000  2.000000
                       2.000000  2.000000  2.000000  2.000000  2.000000  2.000000
                       2.000000  2.000000  2.000000  2.000000  2.000000  2.000000
                       2.000000  2.000000  2.000000  2.000000  2.000000  2.000000
                       2.000000  2.000000  2.000000  2.000000  2.000000  2.000000
                       2.000000  2.000000  2.000000  2.000000  2.000000  2.000000
                       2.000000  2.000000  2.000000  2.000000  2.000000  2.000000
                       2.000000  2.000000  2.000000  2.000000  2.000000  2.000000
                       2.000000  2.000000  2.000000  2.000000  2.000000  2.000000
                       2.000000  2.000000  2.000000  2.000000  2.000000  2.000000
                       2.000000  2.000000  2.000000  2.000000  2.000000  2.000000
                       2.000000  2.000000  2.000000  2.000000  2.000000  2.000000
                       2.000000  2.000000  2.000000  2.000000  2.000000  2.000000
                       2.000000  2.000000  2.000000  2.000000  2.000000  2.000000
                       2.000000  2.000000  2.000000  2.000000  2.000000  2.000000
                       2.000000  2.000000  2.000000  2.000000  2.000000  2.000000
                       2.000000  2.000000  2.000000  2.000000  2.000000  2.000000
                       2.000000  2.000000  2.000000  2.000000  2.000000  2.000000
                       2.000000  2.000000  2.000000  2.000000  2.000000  2.000000
                       2.000000  2.000000  2.000000  2.000000  2.000000  2.000000
                       2.000000  2.000000  2.000000  2.000000  2.000000  2.000000
                       2.000000  2.000000  2.000000  2.000000  2.000000  2.000000
                       2.000000  2.000000  2.000000  2.000000  2.000000  2.000000
                       2.000000  2.000000  2.000000  2.000000  2.000000  2.000000
                       2.000000  2.000000  2.000000  2.000000  2.000000  2.000000
                       2.000000  2.000000  2.000000  2.000000  2.000000  2.000000
                       2.000000  2.000000  2.000000  2.000000  2.000000  2.000000
                       2.000000  2.000000  2.000000  2.000000  2.000000  2.000000
                       2.000000  2.000000  2.000000  2.000000  2.000000  2.000000
                       2.000000  2.000000  2.000000  2.000000  2.000000  2.000000
                       2.000000  2.000000  2.000000  2.000000  2.000000  2.000000
                       2.000000  2.000000  2.000000  2.000000  2.000000  2.000000
                       2.000000  2.000000  2.000000  2.000000  2.000000  2.000000
                       2.000000  2.000000  2.000000  2.000000  2.000000  2.000000
                       2.000000  2.000000  2.000000  2.000000  2.000000  2.000000
                       2.000000  2.000000  2.000000  2.000000  2.000000  2.000000
                       2.000000  2.000000  2.000000  2.000000  2.000000  2.000000
                       2.000000  2.000000  2.000000  2.000000  2.000000  2.000000
                       2.000000  2.000000  2.000000  2.000000  2.000000  2.000000
                       2.000000  2.000000  2.000000  2.000000  2.000000  2.000000
                       2.000000  2.000000  2.000000  2.000000  2.000000  2.000000
                       2.000000  2.000000  2.000000  2.000000  2.000000  2.000000
                       2.000000  2.000000  2.000000  2.000000  2.000000  2.000000
                       2.000000  2.000000  2.000000  2.000000  2.000000  2.000000
                       2.000000  2.000000  2.000000  2.000000  2.000000  2.000000
                       2.000000  2.000000  2.000000  2.000000  2.000000  2.000000
                       2.000000  2.000000  2.000000  2.000000  2.000000  2.000000
                       2.000000  2.000000  2.000000  2.000000  2.000000  2.000000
                       2.000000  2.000000  2.000000  2.000000  2.000000  2.000000
                       2.000000  2.000000  2.000000  2.000000  2.000000  2.000000
                       2.000000  2.000000  2.000000  2.000000  2.000000  2.000000
                       2.000000  2.000000  2.000000  2.000000  2.000000  2.000000
                       2.000000  2.000000  2.000000  2.000000  2.000000  2.000000
                       2.000000  2.000000  2.000000  2.000000  2.000000  2.000000
                       2.000000  2.000000  2.000000  2.000000  2.000000  2.000000
                       2.000000  2.000000  2.000000  2.000000  2.000000  2.000000
                       2.000000  2.000000  2.000000  2.000000  2.000000  2.000000
                       2.000000  2.000000  2.000000  2.000000  2.000000  2.000000
                       2.000000  2.000000  2.000000  2.000000  2.000000  2.000000
                       2.000000  2.000000  2.000000  2.000000  2.000000  2.000000
                       2.000000  2.000000  2.000000  2.000000  2.000000  2.000000
                       2.000000  2.000000  2.000000  2.000000  2.000000  2.000000
                       2.000000  2.000000  2.000000  2.000000  2.000000  2.000000
                       2.000000  2.000000  2.000000  2.000000  2.000000  2.000000
                       2.000000  2.000000  2.000000  2.000000  2.000000  2.000000
                       2.000000  2.000000  2.000000  2.000000  2.000000  2.000000
                       2.000000  2.000000  2.000000  2.000000  2.000000  2.000000
                       2.000000  2.000000  2.000000  2.000000  2.000000  2.000000
                       2.000000  2.000000  2.000000  2.000000  2.000000  2.000000
                       2.000000  2.000000  2.000000  2.000000  2.000000  2.000000
                       2.000000  2.000000  2.000000  2.000000  2.000000  2.000000
                       2.000000  2.000000  2.000000  2.000000  2.000000  2.000000
                       2.000000  2.000000  2.000000  2.000000  2.000000  2.000000
                       2.000000  2.000000  2.000000  2.000000  2.000000  2.000000
                       2.000000  2.000000  2.000000  2.000000  2.000000  2.000000
                       2.000000  2.000000  2.000000  2.000000  2.000000  2.000000
                       2.000000  2.000000  2.000000  2.000000  2.000000  2.000000
                       2.000000  2.000000  2.000000  2.000000  2.000000  2.000000
                       2.000000  2.000000  2.000000  2.000000  2.000000  2.000000
                       2.000000  2.000000  2.000000  2.000000  2.000000  2.000000
                       2.000000  2.000000  2.000000  2.000000  2.000000  2.000000
                       2.000000  2.000000  2.000000  2.000000  2.000000  2.000000
                       2.000000  2.000000  2.000000  2.000000  2.000000  2.000000
                       2.000000  2.000000  2.000000  2.000000  2.000000  2.000000
                       2.000000  2.000000  2.000000  2.000000  2.000000  2.000000
                       2.000000  2.000000  2.000000  2.000000  2.000000  2.000000
                       2.000000  2.000000  2.000000  2.000000  2.000000  2.000000
                       1.000000  0.000000  0.000000  0.000000  0.000000  0.000000
                       0.000000  0.000000  0.000000  0.000000  0.000000  0.000000
                       0.000000  0.000000  0.000000  0.000000  0.000000  0.000000
                       0.000000  0.000000  0.000000  0.000000  0.000000  0.000000
                       0.000000  0.000000  0.000000  0.000000  0.000000  0.000000
                       0.000000  0.000000  0.000000  0.000000  0.000000  0.000000
                       0.000000  0.000000  0.000000  0.000000  0.000000  0.000000
                       0.000000  0.000000  0.000000  0.000000  0.000000  0.000000
                       0.000000  0.000000  0.000000  0.000000  0.000000  0.000000
                       0.000000  0.000000  0.000000  0.000000  0.000000  0.000000
                       0.000000  0.000000
           occopt           3
        paral_kgb           1
        pawecutdg      2.00000000E+01 Hartree
         pawmixdg           1
           prtden           0
           prteig           0
            prtwf           0
          spgroup         221
           symrel      1  0  0   0  1  0   0  0  1      -1  0  0   0 -1  0   0  0 -1
                      -1  0  0   0  1  0   0  0 -1       1  0  0   0 -1  0   0  0  1
                      -1  0  0   0 -1  0   0  0  1       1  0  0   0  1  0   0  0 -1
                       1  0  0   0 -1  0   0  0 -1      -1  0  0   0  1  0   0  0  1
                       0  1  0   1  0  0   0  0  1       0 -1  0  -1  0  0   0  0 -1
                       0 -1  0   1  0  0   0  0 -1       0  1  0  -1  0  0   0  0  1
                       0 -1  0  -1  0  0   0  0  1       0  1  0   1  0  0   0  0 -1
                       0  1  0  -1  0  0   0  0 -1       0 -1  0   1  0  0   0  0  1
                       0  0  1   1  0  0   0  1  0       0  0 -1  -1  0  0   0 -1  0
                       0  0 -1   1  0  0   0 -1  0       0  0  1  -1  0  0   0  1  0
                       0  0 -1  -1  0  0   0  1  0       0  0  1   1  0  0   0 -1  0
                       0  0  1  -1  0  0   0 -1  0       0  0 -1   1  0  0   0  1  0
                       1  0  0   0  0  1   0  1  0      -1  0  0   0  0 -1   0 -1  0
                      -1  0  0   0  0  1   0 -1  0       1  0  0   0  0 -1   0  1  0
                      -1  0  0   0  0 -1   0  1  0       1  0  0   0  0  1   0 -1  0
                       1  0  0   0  0 -1   0 -1  0      -1  0  0   0  0  1   0  1  0
                       0  1  0   0  0  1   1  0  0       0 -1  0   0  0 -1  -1  0  0
                       0 -1  0   0  0  1  -1  0  0       0  1  0   0  0 -1   1  0  0
                       0 -1  0   0  0 -1   1  0  0       0  1  0   0  0  1  -1  0  0
                       0  1  0   0  0 -1  -1  0  0       0 -1  0   0  0  1   1  0  0
                       0  0  1   0  1  0   1  0  0       0  0 -1   0 -1  0  -1  0  0
                       0  0 -1   0  1  0  -1  0  0       0  0  1   0 -1  0   1  0  0
                       0  0 -1   0 -1  0   1  0  0       0  0  1   0  1  0  -1  0  0
                       0  0  1   0 -1  0  -1  0  0       0  0 -1   0  1  0   1  0  0
           toldfe      1.00000000E-05 Hartree
           tsmear      2.00000000E-03 Hartree
            typat      1  1  1  1  1  1  1  1  1  1  1  1  1  1  1  1  1  1  1  1
                       1  1  1  1  1  1  1  1  1  1  1  1  1  1  1  1  1  1  1  1
                       1  1  1  1  1  1  1  1  1  1  1  1  1  1  1  1  1  1  1  1
                       1  1  1  1  1  1  1  1  1  1  1  1  1  1  1  1  1  1  1  1
                       1  1  1  1  1  1  1  1  1  1  1  1  1  1  1  1  1  1  1  1
                       1  1  1  1  1  1  1
           useylm           1
         wfoptalg           1
           xangst      0.0000000000E+00  1.9879254564E+00  1.9879254564E+00
                       1.9879254564E+00  0.0000000000E+00  1.9879254564E+00
                       1.9879254564E+00  1.9879254564E+00  0.0000000000E+00
                       0.0000000000E+00  2.0263310236E+00  6.0881837848E+00
                       2.0263310236E+00  0.0000000000E+00  6.0881837848E+00
                       2.0209010573E+00  2.0209010573E+00  4.0442061240E+00
                       0.0000000000E+00  0.0000000000E+00  4.0488014894E+00
                       0.0000000000E+00  1.9879254564E+00  1.0188442113E+01
                       1.9879254564E+00  0.0000000000E+00  1.0188442113E+01
                       2.0209010573E+00  2.0209010573E+00  8.1321614456E+00
                       0.0000000000E+00  0.0000000000E+00  8.1275660803E+00
                       0.0000000000E+00  6.0881837848E+00  2.0263310236E+00
                       2.0209010573E+00  4.0442061240E+00  2.0209010573E+00
                       2.0263310236E+00  6.0881837848E+00  0.0000000000E+00
                       0.0000000000E+00  4.0488014894E+00  0.0000000000E+00
                       0.0000000000E+00  6.0881837848E+00  6.0881837848E+00
                       2.0273193191E+00  4.0537146258E+00  6.0881837848E+00
                       2.0273193191E+00  6.0881837848E+00  4.0537146258E+00
                       0.0000000000E+00  4.0564400668E+00  4.0564400668E+00
                       0.0000000000E+00  6.0881837848E+00  1.0150036546E+01
                       2.0209010573E+00  4.0442061240E+00  1.0155466512E+01
                       2.0273193191E+00  6.0881837848E+00  8.1226529438E+00
                       0.0000000000E+00  4.0564400668E+00  8.1199275028E+00
                       0.0000000000E+00  1.0188442113E+01  1.9879254564E+00
                       2.0209010573E+00  8.1321614456E+00  2.0209010573E+00
                       1.9879254564E+00  1.0188442113E+01  0.0000000000E+00
                       0.0000000000E+00  8.1275660803E+00  0.0000000000E+00
                       0.0000000000E+00  1.0150036546E+01  6.0881837848E+00
                       2.0273193191E+00  8.1226529438E+00  6.0881837848E+00
                       2.0209010573E+00  1.0155466512E+01  4.0442061240E+00
                       0.0000000000E+00  8.1199275028E+00  4.0564400668E+00
                       0.0000000000E+00  1.0188442113E+01  1.0188442113E+01
                       2.0209010573E+00  8.1321614456E+00  1.0155466512E+01
                       2.0209010573E+00  1.0155466512E+01  8.1321614456E+00
                       0.0000000000E+00  8.1199275028E+00  8.1199275028E+00
                       4.0442061240E+00  2.0209010573E+00  2.0209010573E+00
                       6.0881837848E+00  0.0000000000E+00  2.0263310236E+00
                       6.0881837848E+00  2.0263310236E+00  0.0000000000E+00
                       4.0488014894E+00  0.0000000000E+00  0.0000000000E+00
                       4.0537146258E+00  2.0273193191E+00  6.0881837848E+00
                       6.0881837848E+00  0.0000000000E+00  6.0881837848E+00
                       6.0881837848E+00  2.0273193191E+00  4.0537146258E+00
                       4.0564400668E+00  0.0000000000E+00  4.0564400668E+00
                       4.0442061240E+00  2.0209010573E+00  1.0155466512E+01
                       6.0881837848E+00  0.0000000000E+00  1.0150036546E+01
                       6.0881837848E+00  2.0273193191E+00  8.1226529438E+00
                       4.0564400668E+00  0.0000000000E+00  8.1199275028E+00
                       4.0537146258E+00  6.0881837848E+00  2.0273193191E+00
                       6.0881837848E+00  4.0537146258E+00  2.0273193191E+00
                       6.0881837848E+00  6.0881837848E+00  0.0000000000E+00
                       4.0564400668E+00  4.0564400668E+00  0.0000000000E+00
                       4.0566927952E+00  6.0881837848E+00  6.0881837848E+00
                       6.0881837848E+00  4.0566927952E+00  6.0881837848E+00
                       6.0881837848E+00  6.0881837848E+00  4.0566927952E+00
                       4.0550820334E+00  4.0550820334E+00  4.0550820334E+00
                       4.0537146258E+00  6.0881837848E+00  1.0149048251E+01
                       6.0881837848E+00  4.0537146258E+00  1.0149048251E+01
                       6.0881837848E+00  6.0881837848E+00  8.1196747744E+00
                       4.0550820334E+00  4.0550820334E+00  8.1212855363E+00
                       4.0442061240E+00  1.0155466512E+01  2.0209010573E+00
                       6.0881837848E+00  8.1226529438E+00  2.0273193191E+00
                       6.0881837848E+00  1.0150036546E+01  0.0000000000E+00
                       4.0564400668E+00  8.1199275028E+00  0.0000000000E+00
                       4.0537146258E+00  1.0149048251E+01  6.0881837848E+00
                       6.0881837848E+00  8.1196747744E+00  6.0881837848E+00
                       6.0881837848E+00  1.0149048251E+01  4.0537146258E+00
                       4.0550820334E+00  8.1212855363E+00  4.0550820334E+00
                       4.0442061240E+00  1.0155466512E+01  1.0155466512E+01
                       6.0881837848E+00  8.1226529438E+00  1.0149048251E+01
                       6.0881837848E+00  1.0149048251E+01  8.1226529438E+00
                       4.0550820334E+00  8.1212855363E+00  8.1212855363E+00
                       8.1321614456E+00  2.0209010573E+00  2.0209010573E+00
                       1.0188442113E+01  0.0000000000E+00  1.9879254564E+00
                       1.0188442113E+01  1.9879254564E+00  0.0000000000E+00
                       8.1275660803E+00  0.0000000000E+00  0.0000000000E+00
                       8.1226529438E+00  2.0273193191E+00  6.0881837848E+00
                       1.0150036546E+01  0.0000000000E+00  6.0881837848E+00
                       1.0155466512E+01  2.0209010573E+00  4.0442061240E+00
                       8.1199275028E+00  0.0000000000E+00  4.0564400668E+00
                       8.1321614456E+00  2.0209010573E+00  1.0155466512E+01
                       1.0188442113E+01  0.0000000000E+00  1.0188442113E+01
                       1.0155466512E+01  2.0209010573E+00  8.1321614456E+00
                       8.1199275028E+00  0.0000000000E+00  8.1199275028E+00
                       8.1226529438E+00  6.0881837848E+00  2.0273193191E+00
                       1.0155466512E+01  4.0442061240E+00  2.0209010573E+00
                       1.0150036546E+01  6.0881837848E+00  0.0000000000E+00
                       8.1199275028E+00  4.0564400668E+00  0.0000000000E+00
                       8.1196747744E+00  6.0881837848E+00  6.0881837848E+00
                       1.0149048251E+01  4.0537146258E+00  6.0881837848E+00
                       1.0149048251E+01  6.0881837848E+00  4.0537146258E+00
                       8.1212855363E+00  4.0550820334E+00  4.0550820334E+00
                       8.1226529438E+00  6.0881837848E+00  1.0149048251E+01
                       1.0155466512E+01  4.0442061240E+00  1.0155466512E+01
                       1.0149048251E+01  6.0881837848E+00  8.1226529438E+00
                       8.1212855363E+00  4.0550820334E+00  8.1212855363E+00
                       8.1321614456E+00  1.0155466512E+01  2.0209010573E+00
                       1.0155466512E+01  8.1321614456E+00  2.0209010573E+00
                       1.0188442113E+01  1.0188442113E+01  0.0000000000E+00
                       8.1199275028E+00  8.1199275028E+00  0.0000000000E+00
                       8.1226529438E+00  1.0149048251E+01  6.0881837848E+00
                       1.0149048251E+01  8.1226529438E+00  6.0881837848E+00
                       1.0155466512E+01  1.0155466512E+01  4.0442061240E+00
                       8.1212855363E+00  8.1212855363E+00  4.0550820334E+00
                       8.1321614456E+00  1.0155466512E+01  1.0155466512E+01
                       1.0155466512E+01  8.1321614456E+00  1.0155466512E+01
                       1.0155466512E+01  1.0155466512E+01  8.1321614456E+00
                       8.1212855363E+00  8.1212855363E+00  8.1212855363E+00
            xcart      0.0000000000E+00  3.7566346852E+00  3.7566346852E+00
                       3.7566346852E+00  0.0000000000E+00  3.7566346852E+00
                       3.7566346852E+00  3.7566346852E+00  0.0000000000E+00
                       0.0000000000E+00  3.8292106891E+00  1.1505000000E+01
                       3.8292106891E+00  0.0000000000E+00  1.1505000000E+01
                       3.8189495400E+00  3.8189495400E+00  7.6424419993E+00
                       0.0000000000E+00  0.0000000000E+00  7.6511259814E+00
                       0.0000000000E+00  3.7566346852E+00  1.9253365315E+01
                       3.7566346852E+00  0.0000000000E+00  1.9253365315E+01
                       3.8189495400E+00  3.8189495400E+00  1.5367558001E+01
                       0.0000000000E+00  0.0000000000E+00  1.5358874019E+01
                       0.0000000000E+00  1.1505000000E+01  3.8292106891E+00
                       3.8189495400E+00  7.6424419993E+00  3.8189495400E+00
                       3.8292106891E+00  1.1505000000E+01  0.0000000000E+00
                       0.0000000000E+00  7.6511259814E+00  0.0000000000E+00
                       0.0000000000E+00  1.1505000000E+01  1.1505000000E+01
                       3.8310782969E+00  7.6604104637E+00  1.1505000000E+01
                       3.8310782969E+00  1.1505000000E+01  7.6604104637E+00
                       0.0000000000E+00  7.6655608007E+00  7.6655608007E+00
                       0.0000000000E+00  1.1505000000E+01  1.9180789311E+01
                       3.8189495400E+00  7.6424419993E+00  1.9191050460E+01
                       3.8310782969E+00  1.1505000000E+01  1.5349589536E+01
                       0.0000000000E+00  7.6655608007E+00  1.5344439199E+01
                       0.0000000000E+00  1.9253365315E+01  3.7566346852E+00
                       3.8189495400E+00  1.5367558001E+01  3.8189495400E+00
                       3.7566346852E+00  1.9253365315E+01  0.0000000000E+00
                       0.0000000000E+00  1.5358874019E+01  0.0000000000E+00
                       0.0000000000E+00  1.9180789311E+01  1.1505000000E+01
                       3.8310782969E+00  1.5349589536E+01  1.1505000000E+01
                       3.8189495400E+00  1.9191050460E+01  7.6424419993E+00
                       0.0000000000E+00  1.5344439199E+01  7.6655608007E+00
                       0.0000000000E+00  1.9253365315E+01  1.9253365315E+01
                       3.8189495400E+00  1.5367558001E+01  1.9191050460E+01
                       3.8189495400E+00  1.9191050460E+01  1.5367558001E+01
                       0.0000000000E+00  1.5344439199E+01  1.5344439199E+01
                       7.6424419993E+00  3.8189495400E+00  3.8189495400E+00
                       1.1505000000E+01  0.0000000000E+00  3.8292106891E+00
                       1.1505000000E+01  3.8292106891E+00  0.0000000000E+00
                       7.6511259814E+00  0.0000000000E+00  0.0000000000E+00
                       7.6604104637E+00  3.8310782969E+00  1.1505000000E+01
                       1.1505000000E+01  0.0000000000E+00  1.1505000000E+01
                       1.1505000000E+01  3.8310782969E+00  7.6604104637E+00
                       7.6655608007E+00  0.0000000000E+00  7.6655608007E+00
                       7.6424419993E+00  3.8189495400E+00  1.9191050460E+01
                       1.1505000000E+01  0.0000000000E+00  1.9180789311E+01
                       1.1505000000E+01  3.8310782969E+00  1.5349589536E+01
                       7.6655608007E+00  0.0000000000E+00  1.5344439199E+01
                       7.6604104637E+00  1.1505000000E+01  3.8310782969E+00
                       1.1505000000E+01  7.6604104637E+00  3.8310782969E+00
                       1.1505000000E+01  1.1505000000E+01  0.0000000000E+00
                       7.6655608007E+00  7.6655608007E+00  0.0000000000E+00
                       7.6660383882E+00  1.1505000000E+01  1.1505000000E+01
                       1.1505000000E+01  7.6660383882E+00  1.1505000000E+01
                       1.1505000000E+01  1.1505000000E+01  7.6660383882E+00
                       7.6629944895E+00  7.6629944895E+00  7.6629944895E+00
                       7.6604104637E+00  1.1505000000E+01  1.9178921703E+01
                       1.1505000000E+01  7.6604104637E+00  1.9178921703E+01
                       1.1505000000E+01  1.1505000000E+01  1.5343961612E+01
                       7.6629944895E+00  7.6629944895E+00  1.5347005511E+01
                       7.6424419993E+00  1.9191050460E+01  3.8189495400E+00
                       1.1505000000E+01  1.5349589536E+01  3.8310782969E+00
                       1.1505000000E+01  1.9180789311E+01  0.0000000000E+00
                       7.6655608007E+00  1.5344439199E+01  0.0000000000E+00
                       7.6604104637E+00  1.9178921703E+01  1.1505000000E+01
                       1.1505000000E+01  1.5343961612E+01  1.1505000000E+01
                       1.1505000000E+01  1.9178921703E+01  7.6604104637E+00
                       7.6629944895E+00  1.5347005511E+01  7.6629944895E+00
                       7.6424419993E+00  1.9191050460E+01  1.9191050460E+01
                       1.1505000000E+01  1.5349589536E+01  1.9178921703E+01
                       1.1505000000E+01  1.9178921703E+01  1.5349589536E+01
                       7.6629944895E+00  1.5347005511E+01  1.5347005511E+01
                       1.5367558001E+01  3.8189495400E+00  3.8189495400E+00
                       1.9253365315E+01  0.0000000000E+00  3.7566346852E+00
                       1.9253365315E+01  3.7566346852E+00  0.0000000000E+00
                       1.5358874019E+01  0.0000000000E+00  0.0000000000E+00
                       1.5349589536E+01  3.8310782969E+00  1.1505000000E+01
                       1.9180789311E+01  0.0000000000E+00  1.1505000000E+01
                       1.9191050460E+01  3.8189495400E+00  7.6424419993E+00
                       1.5344439199E+01  0.0000000000E+00  7.6655608007E+00
                       1.5367558001E+01  3.8189495400E+00  1.9191050460E+01
                       1.9253365315E+01  0.0000000000E+00  1.9253365315E+01
                       1.9191050460E+01  3.8189495400E+00  1.5367558001E+01
                       1.5344439199E+01  0.0000000000E+00  1.5344439199E+01
                       1.5349589536E+01  1.1505000000E+01  3.8310782969E+00
                       1.9191050460E+01  7.6424419993E+00  3.8189495400E+00
                       1.9180789311E+01  1.1505000000E+01  0.0000000000E+00
                       1.5344439199E+01  7.6655608007E+00  0.0000000000E+00
                       1.5343961612E+01  1.1505000000E+01  1.1505000000E+01
                       1.9178921703E+01  7.6604104637E+00  1.1505000000E+01
                       1.9178921703E+01  1.1505000000E+01  7.6604104637E+00
                       1.5347005511E+01  7.6629944895E+00  7.6629944895E+00
                       1.5349589536E+01  1.1505000000E+01  1.9178921703E+01
                       1.9191050460E+01  7.6424419993E+00  1.9191050460E+01
                       1.9178921703E+01  1.1505000000E+01  1.5349589536E+01
                       1.5347005511E+01  7.6629944895E+00  1.5347005511E+01
                       1.5367558001E+01  1.9191050460E+01  3.8189495400E+00
                       1.9191050460E+01  1.5367558001E+01  3.8189495400E+00
                       1.9253365315E+01  1.9253365315E+01  0.0000000000E+00
                       1.5344439199E+01  1.5344439199E+01  0.0000000000E+00
                       1.5349589536E+01  1.9178921703E+01  1.1505000000E+01
                       1.9178921703E+01  1.5349589536E+01  1.1505000000E+01
                       1.9191050460E+01  1.9191050460E+01  7.6424419993E+00
                       1.5347005511E+01  1.5347005511E+01  7.6629944895E+00
                       1.5367558001E+01  1.9191050460E+01  1.9191050460E+01
                       1.9191050460E+01  1.5367558001E+01  1.9191050460E+01
                       1.9191050460E+01  1.9191050460E+01  1.5367558001E+01
                       1.5347005511E+01  1.5347005511E+01  1.5347005511E+01
             xred      0.0000000000E+00  1.6326095981E-01  1.6326095981E-01
                       1.6326095981E-01  0.0000000000E+00  1.6326095981E-01
                       1.6326095981E-01  1.6326095981E-01  0.0000000000E+00
                       0.0000000000E+00  1.6641506689E-01  5.0000000000E-01
                       1.6641506689E-01  0.0000000000E+00  5.0000000000E-01
                       1.6596912386E-01  1.6596912386E-01  3.3213568011E-01
                       0.0000000000E+00  0.0000000000E+00  3.3251308046E-01
                       0.0000000000E+00  1.6326095981E-01  8.3673904019E-01
                       1.6326095981E-01  0.0000000000E+00  8.3673904019E-01
                       1.6596912386E-01  1.6596912386E-01  6.6786431989E-01
                       0.0000000000E+00  0.0000000000E+00  6.6748691954E-01
                       0.0000000000E+00  5.0000000000E-01  1.6641506689E-01
                       1.6596912386E-01  3.3213568011E-01  1.6596912386E-01
                       1.6641506689E-01  5.0000000000E-01  0.0000000000E+00
                       0.0000000000E+00  3.3251308046E-01  0.0000000000E+00
                       0.0000000000E+00  5.0000000000E-01  5.0000000000E-01
                       1.6649623194E-01  3.3291657817E-01  5.0000000000E-01
                       1.6649623194E-01  5.0000000000E-01  3.3291657817E-01
                       0.0000000000E+00  3.3314040855E-01  3.3314040855E-01
                       0.0000000000E+00  5.0000000000E-01  8.3358493311E-01
                       1.6596912386E-01  3.3213568011E-01  8.3403087614E-01
                       1.6649623194E-01  5.0000000000E-01  6.6708342183E-01
                       0.0000000000E+00  3.3314040855E-01  6.6685959145E-01
                       0.0000000000E+00  8.3673904019E-01  1.6326095981E-01
                       1.6596912386E-01  6.6786431989E-01  1.6596912386E-01
                       1.6326095981E-01  8.3673904019E-01  0.0000000000E+00
                       0.0000000000E+00  6.6748691954E-01  0.0000000000E+00
                       0.0000000000E+00  8.3358493311E-01  5.0000000000E-01
                       1.6649623194E-01  6.6708342183E-01  5.0000000000E-01
                       1.6596912386E-01  8.3403087614E-01  3.3213568011E-01
                       0.0000000000E+00  6.6685959145E-01  3.3314040855E-01
                       0.0000000000E+00  8.3673904019E-01  8.3673904019E-01
                       1.6596912386E-01  6.6786431989E-01  8.3403087614E-01
                       1.6596912386E-01  8.3403087614E-01  6.6786431989E-01
                       0.0000000000E+00  6.6685959145E-01  6.6685959145E-01
                       3.3213568011E-01  1.6596912386E-01  1.6596912386E-01
                       5.0000000000E-01  0.0000000000E+00  1.6641506689E-01
                       5.0000000000E-01  1.6641506689E-01  0.0000000000E+00
                       3.3251308046E-01  0.0000000000E+00  0.0000000000E+00
                       3.3291657817E-01  1.6649623194E-01  5.0000000000E-01
                       5.0000000000E-01  0.0000000000E+00  5.0000000000E-01
                       5.0000000000E-01  1.6649623194E-01  3.3291657817E-01
                       3.3314040855E-01  0.0000000000E+00  3.3314040855E-01
                       3.3213568011E-01  1.6596912386E-01  8.3403087614E-01
                       5.0000000000E-01  0.0000000000E+00  8.3358493311E-01
                       5.0000000000E-01  1.6649623194E-01  6.6708342183E-01
                       3.3314040855E-01  0.0000000000E+00  6.6685959145E-01
                       3.3291657817E-01  5.0000000000E-01  1.6649623194E-01
                       5.0000000000E-01  3.3291657817E-01  1.6649623194E-01
                       5.0000000000E-01  5.0000000000E-01  0.0000000000E+00
                       3.3314040855E-01  3.3314040855E-01  0.0000000000E+00
                       3.3316116420E-01  5.0000000000E-01  5.0000000000E-01
                       5.0000000000E-01  3.3316116420E-01  5.0000000000E-01
                       5.0000000000E-01  5.0000000000E-01  3.3316116420E-01
                       3.3302887829E-01  3.3302887829E-01  3.3302887829E-01
                       3.3291657817E-01  5.0000000000E-01  8.3350376806E-01
                       5.0000000000E-01  3.3291657817E-01  8.3350376806E-01
                       5.0000000000E-01  5.0000000000E-01  6.6683883580E-01
                       3.3302887829E-01  3.3302887829E-01  6.6697112171E-01
                       3.3213568011E-01  8.3403087614E-01  1.6596912386E-01
                       5.0000000000E-01  6.6708342183E-01  1.6649623194E-01
                       5.0000000000E-01  8.3358493311E-01  0.0000000000E+00
                       3.3314040855E-01  6.6685959145E-01  0.0000000000E+00
                       3.3291657817E-01  8.3350376806E-01  5.0000000000E-01
                       5.0000000000E-01  6.6683883580E-01  5.0000000000E-01
                       5.0000000000E-01  8.3350376806E-01  3.3291657817E-01
                       3.3302887829E-01  6.6697112171E-01  3.3302887829E-01
                       3.3213568011E-01  8.3403087614E-01  8.3403087614E-01
                       5.0000000000E-01  6.6708342183E-01  8.3350376806E-01
                       5.0000000000E-01  8.3350376806E-01  6.6708342183E-01
                       3.3302887829E-01  6.6697112171E-01  6.6697112171E-01
                       6.6786431989E-01  1.6596912386E-01  1.6596912386E-01
                       8.3673904019E-01  0.0000000000E+00  1.6326095981E-01
                       8.3673904019E-01  1.6326095981E-01  0.0000000000E+00
                       6.6748691954E-01  0.0000000000E+00  0.0000000000E+00
                       6.6708342183E-01  1.6649623194E-01  5.0000000000E-01
                       8.3358493311E-01  0.0000000000E+00  5.0000000000E-01
                       8.3403087614E-01  1.6596912386E-01  3.3213568011E-01
                       6.6685959145E-01  0.0000000000E+00  3.3314040855E-01
                       6.6786431989E-01  1.6596912386E-01  8.3403087614E-01
                       8.3673904019E-01  0.0000000000E+00  8.3673904019E-01
                       8.3403087614E-01  1.6596912386E-01  6.6786431989E-01
                       6.6685959145E-01  0.0000000000E+00  6.6685959145E-01
                       6.6708342183E-01  5.0000000000E-01  1.6649623194E-01
                       8.3403087614E-01  3.3213568011E-01  1.6596912386E-01
                       8.3358493311E-01  5.0000000000E-01  0.0000000000E+00
                       6.6685959145E-01  3.3314040855E-01  0.0000000000E+00
                       6.6683883580E-01  5.0000000000E-01  5.0000000000E-01
                       8.3350376806E-01  3.3291657817E-01  5.0000000000E-01
                       8.3350376806E-01  5.0000000000E-01  3.3291657817E-01
                       6.6697112171E-01  3.3302887829E-01  3.3302887829E-01
                       6.6708342183E-01  5.0000000000E-01  8.3350376806E-01
                       8.3403087614E-01  3.3213568011E-01  8.3403087614E-01
                       8.3350376806E-01  5.0000000000E-01  6.6708342183E-01
                       6.6697112171E-01  3.3302887829E-01  6.6697112171E-01
                       6.6786431989E-01  8.3403087614E-01  1.6596912386E-01
                       8.3403087614E-01  6.6786431989E-01  1.6596912386E-01
                       8.3673904019E-01  8.3673904019E-01  0.0000000000E+00
                       6.6685959145E-01  6.6685959145E-01  0.0000000000E+00
                       6.6708342183E-01  8.3350376806E-01  5.0000000000E-01
                       8.3350376806E-01  6.6708342183E-01  5.0000000000E-01
                       8.3403087614E-01  8.3403087614E-01  3.3213568011E-01
                       6.6697112171E-01  6.6697112171E-01  3.3302887829E-01
                       6.6786431989E-01  8.3403087614E-01  8.3403087614E-01
                       8.3403087614E-01  6.6786431989E-01  8.3403087614E-01
                       8.3403087614E-01  8.3403087614E-01  6.6786431989E-01
                       6.6697112171E-01  6.6697112171E-01  6.6697112171E-01
            znucl       79.00000
 
================================================================================
 
 chkinp: Checking input parameters for consistency.
 
================================================================================
== DATASET  1 ==================================================================
-   nproc =  130
 
 Exchange-correlation functional for the present dataset will be:
  GGA: Perdew-Burke-Ernzerhof functional - ixc=11
 Citation for XC functional:
  J.P.Perdew, K.Burke, M.Ernzerhof, PRL 77, 3865 (1996)
 
 Real(R)+Recip(G) space primitive vectors, cartesian coordinates (Bohr,Bohr^-1):
 R(1)= 23.0100000  0.0000000  0.0000000  G(1)=  0.0434594  0.0000000  0.0000000
 R(2)=  0.0000000 23.0100000  0.0000000  G(2)=  0.0000000  0.0434594  0.0000000
 R(3)=  0.0000000  0.0000000 23.0100000  G(3)=  0.0000000  0.0000000  0.0434594
 Unit cell volume ucvol=  1.2182877E+04 bohr^3
 Angles (23,13,12)=  9.00000000E+01  9.00000000E+01  9.00000000E+01 degrees
 
 Coarse grid specifications (used for wave-functions):
 
 getcut: wavevector=  0.0000  0.0000  0.0000  ngfft=  80  80  80
         ecut(hartree)=     10.000   => boxcut(ratio)=   2.44235
 
 getcut : COMMENT -
  Note that boxcut > 2.2 ; recall that boxcut=Gcut(box)/Gcut(sphere) = 2
  is sufficient for exact treatment of convolution.
  Such a large boxcut is a waste : you could raise ecut
  e.g. ecut=   14.912707 Hartrees makes boxcut=2
 
 
 Fine grid specifications (used for densities):
 
 getcut: wavevector=  0.0000  0.0000  0.0000  ngfft= 100 100 100
         ecut(hartree)=     20.000   => boxcut(ratio)=   2.15875
 
--- Pseudopotential description ------------------------------------------------
- pspini: atom type   1  psp file is PSEUDO/au.paw
- pspatm: opening atomic psp file    PSEUDO/au.paw
- Paw atomic data for element Au - Generated by AtomPAW + AtomPAW2Abinit v3.2.1
- 79.00000  11.00000  20090122                znucl, zion, pspdat
    7   11    2    0      1005   0.00000      pspcod,pspxc,lmax,lloc,mmax,r2well
 Pseudopotential format is: paw4
 basis_size (lnmax)=  6 (lmn_size= 18), orbitals=   0   0   1   1   2   2
 Spheres core radius: rc_sph= 2.50000000
 4 radial meshes are used:
  - mesh 1: r(i)=AA*[exp(BB*(i-1))-1], size=1005 , AA= 0.12544E-03 BB= 0.99099E-02
  - mesh 2: r(i)=AA*[exp(BB*(i-1))-1], size=1000 , AA= 0.12544E-03 BB= 0.99099E-02
  - mesh 3: r(i)=AA*[exp(BB*(i-1))-1], size=1079 , AA= 0.12544E-03 BB= 0.99099E-02
  - mesh 4: r(i)=AA*[exp(BB*(i-1))-1], size=1139 , AA= 0.12544E-03 BB= 0.99099E-02
 Shapefunction is SIN type: shapef(r)=[sin(pi*r/rshp)/(pi*r/rshp)]**2
 Radius for shape functions =  2.26412037
 Radial grid used for partial waves is grid 1
 Radial grid used for projectors is grid  2
 Radial grid used for (t)core density is grid 3
 Radial grid used for Vloc is grid 4
 Radial grid used for pseudo valence density is grid 4
 pspatm: atomic psp has been read  and splines computed
 
   4.90631246E+06                                ecore*ucvol(ha*bohr**3)
--------------------------------------------------------------------------------
 
P newkpt: treating    650 bands with npw=     145 for ikpt=   1 by node    0
 
_setup2: Arith. and geom. avg. npw (full set) are     145.000     145.000
 
================================================================================
 
     iter   Etot(hartree)      deltaE(h)  residm     nres2
 ETOT  1  -3626.9651689235    -3.627E+03 3.526E-02 4.371E+02
 ETOT  2  -3650.8641449410    -2.390E+01 9.016E-03 8.570E+01
 ETOT  3  -3651.6979218340    -8.338E-01 5.452E-03 1.237E+01
 ETOT  4  -3652.5086592367    -8.107E-01 3.635E-03 5.569E+00
 ETOT  5  -3652.7943210382    -2.857E-01 1.311E-03 8.032E-01
 ETOT  6  -3652.9160976095    -1.218E-01 4.273E-04 1.321E-02
 ETOT  7  -3652.9637247051    -4.763E-02 3.277E-04 1.443E-02
 ETOT  8  -3652.9810939154    -1.737E-02 2.401E-04 1.188E-03
 ETOT  9  -3652.9874859690    -6.392E-03 1.648E-04 1.534E-03
 ETOT 10  -3652.9898411831    -2.355E-03 1.084E-04 2.359E-04
 ETOT 11  -3652.9907183653    -8.772E-04 6.801E-05 1.486E-05
 ETOT 12  -3652.9910512600    -3.329E-04 4.078E-05 5.117E-06
 ETOT 13  -3652.9911785934    -1.273E-04 2.295E-05 7.849E-07
 ETOT 14  -3652.9912277602    -4.917E-05 1.245E-05 3.100E-07
 ETOT 15  -3652.9912469224    -1.916E-05 7.301E-06 6.484E-08
 ETOT 16  -3652.9912544370    -7.515E-06 5.144E-06 1.570E-08
 ETOT 17  -3652.9912573932    -2.956E-06 3.540E-06 5.229E-09
 
 At SCF step   17, etot is converged : 
  for the second time, diff in etot=  2.956E-06 < toldfe=  1.000E-05
 
 Cartesian components of stress tensor (hartree/bohr^3)
  sigma(1 1)= -5.15567171E-04  sigma(3 2)=  0.00000000E+00
  sigma(2 2)= -5.15567171E-04  sigma(3 1)=  0.00000000E+00
  sigma(3 3)= -5.15567171E-04  sigma(2 1)=  0.00000000E+00
 
 
 PAW TEST:
 ==== Compensation charge inside spheres ============
 The following values must be close to each other ...
 Compensation charge over spherical meshes =    404.192684218171394
 Compensation charge over fine fft grid    =    404.192698427858772
 
 ==== Results concerning PAW augmentation regions ====
 
 Total pseudopotential strength Dij (hartree):
 Atom #  1
   0.47824  -2.06023   0.00005   0.00005   0.00000  -0.00072  -0.00072   0.00000   0.00000  -0.00026  -0.00010   0.00000 ...
  -2.06023  10.20526  -0.00020  -0.00020   0.00000   0.00296   0.00296   0.00000   0.00000   0.00076   0.00028   0.00000 ...
   0.00005  -0.00020   0.04628  -0.00002   0.00000  -0.65820   0.00040   0.00000   0.00000   0.00005  -0.00001   0.00000 ...
   0.00005  -0.00020  -0.00002   0.04628   0.00000   0.00040  -0.65820   0.00000   0.00000   0.00005   0.00004   0.00000 ...
   0.00000   0.00000   0.00000   0.00000   0.04631   0.00000   0.00000  -0.65864   0.00003   0.00000   0.00000   0.00003 ...
  -0.00072   0.00296  -0.65820   0.00040   0.00000  11.74243  -0.00627   0.00000   0.00000  -0.00037   0.00007   0.00000 ...
  -0.00072   0.00296   0.00040  -0.65820   0.00000  -0.00627  11.74243   0.00000   0.00000  -0.00037  -0.00029   0.00000 ...
   0.00000   0.00000   0.00000   0.00000  -0.65864   0.00000   0.00000  11.74941  -0.00021   0.00000   0.00000  -0.00021 ...
   0.00000   0.00000   0.00000   0.00000   0.00003   0.00000   0.00000  -0.00021  -0.30185   0.00000   0.00000   0.00011 ...
  -0.00026   0.00076   0.00005   0.00005   0.00000  -0.00037  -0.00037   0.00000   0.00000  -0.30112   0.00020   0.00000 ...
  -0.00010   0.00028  -0.00001   0.00004   0.00000   0.00007  -0.00029   0.00000   0.00000   0.00020  -0.30103   0.00000 ...
   0.00000   0.00000   0.00000   0.00000   0.00003   0.00000   0.00000  -0.00021   0.00011   0.00000   0.00000  -0.30185 ...
   ...  only 12  components have been written...
 Atom #107
   0.47915  -2.06403   0.00000   0.00000   0.00000  -0.00002  -0.00002  -0.00002   0.00006   0.00006   0.00000   0.00006 ...
  -2.06403  10.22092  -0.00001  -0.00001  -0.00001   0.00015   0.00015   0.00015  -0.00014  -0.00014   0.00000  -0.00014 ...
   0.00000  -0.00001   0.04631   0.00000   0.00000  -0.65895  -0.00003  -0.00003  -0.00001  -0.00001   0.00001   0.00000 ...
   0.00000  -0.00001   0.00000   0.04631   0.00000  -0.00003  -0.65895  -0.00003   0.00000  -0.00001  -0.00001  -0.00001 ...
   0.00000  -0.00001   0.00000   0.00000   0.04631  -0.00003  -0.00003  -0.65895  -0.00001   0.00000   0.00001  -0.00001 ...
  -0.00002   0.00015  -0.65895  -0.00003  -0.00003  11.75613   0.00061   0.00061   0.00007   0.00007  -0.00005  -0.00001 ...
  -0.00002   0.00015  -0.00003  -0.65895  -0.00003   0.00061  11.75613   0.00061  -0.00001   0.00007   0.00010   0.00007 ...
  -0.00002   0.00015  -0.00003  -0.00003  -0.65895   0.00061   0.00061  11.75613   0.00007  -0.00001  -0.00005   0.00007 ...
   0.00006  -0.00014  -0.00001   0.00000  -0.00001   0.00007  -0.00001   0.00007  -0.30357  -0.00016   0.00009  -0.00016 ...
   0.00006  -0.00014  -0.00001  -0.00001   0.00000   0.00007   0.00007  -0.00001  -0.00016  -0.30357  -0.00005  -0.00016 ...
   0.00000   0.00000   0.00001  -0.00001   0.00001  -0.00005   0.00010  -0.00005   0.00009  -0.00005  -0.30298  -0.00005 ...
   0.00006  -0.00014   0.00000  -0.00001  -0.00001  -0.00001   0.00007   0.00007  -0.00016  -0.00016  -0.00005  -0.30357 ...
   ...  only 12  components have been written...
 
 
 Augmentation waves occupancies Rhoij:
 Atom #  1
   1.28854   0.01278  -0.00160  -0.00160   0.00000   0.00008   0.00008   0.00000   0.00000   0.02805   0.00814   0.00000 ...
   0.01278   0.00027   0.00109   0.00109   0.00000   0.00001   0.00001   0.00000   0.00000  -0.00054  -0.00019   0.00000 ...
  -0.00160   0.00109   1.09804  -0.13127   0.00000   0.00444  -0.00056   0.00000   0.00000  -0.01334  -0.00363   0.00000 ...
  -0.00160   0.00109  -0.13127   1.09804   0.00000  -0.00056   0.00444   0.00000   0.00000  -0.01334   0.00110   0.00000 ...
   0.00000   0.00000   0.00000   0.00000   1.26439   0.00000   0.00000   0.00506  -0.01028   0.00000   0.00000  -0.01028 ...
   0.00008   0.00001   0.00444  -0.00056   0.00000   0.00002  -0.00000   0.00000   0.00000  -0.00008   0.00013   0.00000 ...
   0.00008   0.00001  -0.00056   0.00444   0.00000  -0.00000   0.00002   0.00000   0.00000  -0.00008  -0.00014   0.00000 ...
   0.00000   0.00000   0.00000   0.00000   0.00506   0.00000   0.00000   0.00002  -0.00022   0.00000   0.00000  -0.00022 ...
   0.00000   0.00000   0.00000   0.00000  -0.01028   0.00000   0.00000  -0.00022   1.88552   0.00000   0.00000  -0.00714 ...
   0.02805  -0.00054  -0.01334  -0.01334   0.00000  -0.00008  -0.00008   0.00000   0.00000   1.91281   0.00511   0.00000 ...
   0.00814  -0.00019  -0.00363   0.00110   0.00000   0.00013  -0.00014   0.00000   0.00000   0.00511   1.92643   0.00000 ...
   0.00000   0.00000   0.00000   0.00000  -0.01028   0.00000   0.00000  -0.00022  -0.00714   0.00000   0.00000   1.88552 ...
   ...  only 12  components have been written...
 Atom #107
   1.25462   0.01342   0.00234   0.00234   0.00234   0.00001   0.00001   0.00001  -0.00368  -0.00368   0.00000  -0.00368 ...
   0.01342   0.00028  -0.00009  -0.00009  -0.00009  -0.00000  -0.00000  -0.00000  -0.00009  -0.00009   0.00000  -0.00009 ...
   0.00234  -0.00009   1.19115  -0.00483  -0.00483   0.00482  -0.00001  -0.00001  -0.00361  -0.00361   0.00081  -0.00262 ...
   0.00234  -0.00009  -0.00483   1.19115  -0.00483  -0.00001   0.00482  -0.00001  -0.00262  -0.00361  -0.00162  -0.00361 ...
   0.00234  -0.00009  -0.00483  -0.00483   1.19115  -0.00001  -0.00001   0.00482  -0.00361  -0.00262   0.00081  -0.00361 ...
   0.00001  -0.00000   0.00482  -0.00001  -0.00001   0.00002  -0.00000  -0.00000   0.00001   0.00001  -0.00001  -0.00001 ...
   0.00001  -0.00000  -0.00001   0.00482  -0.00001  -0.00000   0.00002  -0.00000  -0.00001   0.00001   0.00001   0.00001 ...
   0.00001  -0.00000  -0.00001  -0.00001   0.00482  -0.00000  -0.00000   0.00002   0.00001  -0.00001  -0.00001   0.00001 ...
  -0.00368  -0.00009  -0.00361  -0.00262  -0.00361   0.00001  -0.00001   0.00001   1.89172  -0.00605  -0.00058  -0.00605 ...
  -0.00368  -0.00009  -0.00361  -0.00361  -0.00262   0.00001   0.00001  -0.00001  -0.00605   1.89172   0.00029  -0.00605 ...
   0.00000   0.00000   0.00081  -0.00162   0.00081  -0.00001   0.00001  -0.00001  -0.00058   0.00029   1.93276   0.00029 ...
  -0.00368  -0.00009  -0.00262  -0.00361  -0.00361  -0.00001   0.00001   0.00001  -0.00605  -0.00605   0.00029   1.89172 ...
   ...  only 12  components have been written...
 
 
================================================================================
 
 ----iterations are completed or convergence reached----
 
 Mean square residual over all n,k,spin=   1.9673E-06; max=  3.5396E-06
   0.0000  0.0000  0.0000    1  1.96775E-04 kpt; spin; max resid(k); each band:
  4.40E-15 1.95E-15 2.14E-15 2.93E-15 2.98E-15 2.86E-15 1.54E-14 5.45E-15
  4.79E-15 3.48E-15 3.39E-15 4.39E-15 3.54E-15 3.18E-15 3.84E-15 6.26E-15
  6.29E-15 6.15E-15 7.97E-15 3.35E-15 4.56E-15 4.57E-15 4.60E-15 3.39E-15
  3.54E-15 3.59E-15 3.35E-14 4.61E-15 2.84E-15 2.89E-15 4.51E-15 4.50E-15
  4.50E-15 7.30E-15 4.02E-15 4.12E-15 5.42E-15 5.62E-15 5.66E-15 4.61E-15
  4.71E-15 4.63E-15 3.41E-15 6.44E-15 6.31E-15 6.53E-15 5.08E-15 5.07E-15
  3.52E-15 3.55E-15 3.61E-15 3.50E-15 3.32E-15 3.17E-15 6.21E-15 6.20E-15
  5.99E-15 7.03E-15 6.26E-15 6.00E-15 5.81E-15 6.17E-15 3.48E-14 3.52E-15
  3.35E-15 3.45E-15 3.47E-15 3.35E-15 1.62E-14 5.87E-15 5.89E-15 5.95E-15
  5.20E-15 6.22E-15 4.99E-15 5.26E-15 5.82E-15 5.80E-15 6.46E-15 6.47E-15
  6.53E-15 6.80E-15 6.71E-15 6.73E-15 6.78E-15 6.73E-15 6.66E-15 9.97E-15
  7.62E-15 7.43E-15 4.66E-15 4.69E-15 4.64E-15 4.60E-15 4.53E-15 4.63E-15
  6.92E-15 6.99E-15 7.10E-15 8.57E-15 8.90E-15 9.12E-15 5.73E-15 5.65E-15
  5.94E-15 5.08E-15 5.04E-15 4.89E-15 4.84E-15 4.99E-15 4.26E-15 6.03E-15
  5.10E-15 5.79E-15 4.71E-15 5.05E-15 4.94E-15 5.45E-15 4.64E-15 5.40E-15
  1.25E-14 1.28E-14 1.25E-14 7.94E-15 8.14E-15 8.20E-15 1.03E-14 1.02E-14
  9.18E-15 9.25E-15 7.80E-15 7.89E-15 8.08E-15 6.32E-15 6.56E-15 6.45E-15
  5.03E-15 1.04E-14 6.64E-15 6.38E-15 6.45E-15 7.00E-15 7.01E-15 7.08E-15
  6.44E-15 6.58E-15 1.10E-14 1.17E-14 1.13E-14 1.31E-14 1.27E-14 1.32E-14
  1.54E-13 7.07E-15 7.11E-15 7.38E-15 9.48E-15 9.26E-15 1.01E-14 6.46E-14
  1.23E-14 1.28E-14 1.22E-14 2.34E-14 8.69E-15 9.08E-15 7.91E-15 1.37E-14
  1.45E-14 9.39E-15 9.10E-15 9.25E-15 1.14E-14 1.10E-14 1.24E-14 1.22E-14
  1.34E-14 1.32E-14 1.33E-14 1.32E-14 1.99E-14 1.98E-14 2.06E-14 1.11E-14
  1.79E-14 1.67E-14 1.86E-14 1.01E-14 9.59E-15 1.03E-14 7.92E-15 9.79E-15
  1.11E-14 1.20E-14 1.20E-14 1.21E-14 8.86E-15 1.03E-14 1.05E-14 1.08E-14
  1.15E-14 1.06E-14 1.01E-14 1.14E-14 1.05E-14 9.01E-15 9.76E-15 1.46E-14
  1.52E-14 1.57E-14 1.72E-14 1.58E-14 1.66E-14 1.62E-14 1.57E-14 1.67E-14
  1.09E-14 1.08E-14 1.04E-14 1.54E-14 1.55E-14 1.58E-14 2.41E-14 2.79E-14
  2.43E-14 2.06E-14 1.71E-14 1.69E-14 2.54E-14 2.56E-14 2.51E-13 2.89E-14
  3.28E-14 3.30E-14 3.38E-14 2.74E-14 2.92E-14 2.68E-14 2.75E-14 4.48E-14
  2.54E-14 2.94E-14 3.20E-14 2.49E-14 1.97E-14 1.54E-14 2.29E-14 2.36E-14
  2.61E-14 2.41E-14 2.09E-14 2.61E-14 2.32E-14 2.31E-14 2.19E-14 2.95E-14
  2.60E-14 2.00E-14 1.67E-14 3.27E-14 2.77E-14 2.89E-14 3.76E-14 3.12E-14
  3.16E-14 4.01E-14 4.17E-14 4.44E-14 4.47E-14 3.24E-14 2.85E-14 3.22E-14
  4.84E-14 5.84E-14 3.75E-14 4.55E-14 3.67E-14 6.59E-14 2.91E-14 4.16E-14
  5.28E-14 5.58E-14 3.89E-14 3.07E-14 4.09E-14 3.80E-14 6.85E-14 8.08E-14
  7.29E-14 5.60E-14 6.45E-14 5.65E-14 4.47E-14 4.31E-14 4.20E-14 3.94E-14
  5.29E-14 4.09E-14 3.50E-14 5.55E-14 6.90E-14 6.59E-14 6.07E-14 6.55E-14
  7.25E-14 5.01E-14 5.45E-14 4.10E-14 4.83E-14 6.75E-14 8.44E-14 4.08E-14
  3.80E-14 7.34E-14 5.51E-14 4.81E-14 1.11E-13 4.90E-14 4.94E-14 5.09E-14
  3.95E-14 5.68E-14 5.99E-14 5.31E-14 6.74E-14 8.58E-14 4.75E-14 4.97E-14
  6.27E-14 3.60E-14 4.78E-14 5.60E-14 3.67E-14 4.95E-14 5.44E-14 8.63E-14
  4.21E-14 5.04E-14 4.15E-14 5.80E-14 5.67E-14 6.34E-14 6.11E-14 4.17E-14
  6.91E-14 8.07E-14 6.70E-14 1.17E-13 5.77E-14 7.07E-14 9.39E-14 7.15E-14
  8.48E-14 1.20E-13 1.63E-13 5.87E-14 8.54E-14 7.84E-14 9.33E-14 1.98E-13
  1.24E-13 1.30E-13 1.44E-13 1.13E-13 1.11E-13 8.00E-14 1.53E-13 1.30E-13
  1.04E-13 1.37E-13 8.56E-14 1.55E-13 1.07E-13 1.67E-13 1.80E-13 2.42E-13
  7.02E-14 1.33E-13 1.53E-13 2.55E-13 3.09E-13 2.00E-13 4.24E-13 2.13E-13
  2.97E-13 3.30E-13 2.99E-13 6.01E-13 3.35E-13 4.91E-13 3.99E-13 3.71E-13
  4.20E-13 8.87E-13 9.08E-13 4.18E-13 5.17E-13 1.41E-12 4.35E-13 7.17E-13
  2.30E-13 4.11E-13 6.78E-13 3.32E-13 4.09E-13 1.29E-12 1.45E-12 7.36E-13
  8.41E-13 5.27E-13 9.76E-13 1.49E-12 3.79E-13 6.67E-13 1.52E-12 6.49E-13
  1.08E-12 1.46E-12 7.71E-13 3.61E-13 5.69E-13 1.31E-12 1.00E-12 3.41E-13
  5.52E-13 7.18E-13 8.63E-13 1.32E-12 3.47E-13 6.20E-13 2.10E-12 1.08E-12
  2.10E-12 8.40E-13 1.49E-12 2.98E-12 1.20E-12 1.09E-12 2.22E-12 5.69E-13
  1.20E-12 1.31E-12 2.23E-12 1.33E-12 2.63E-12 1.20E-12 2.11E-12 4.04E-12
  1.35E-12 3.46E-12 1.01E-12 1.94E-12 2.71E-12 9.94E-13 1.24E-12 3.43E-12
  1.87E-12 3.32E-12 5.44E-12 9.50E-13 2.14E-12 3.86E-12 1.75E-12 2.02E-12
  3.89E-12 1.14E-12 2.06E-12 4.41E-12 1.68E-12 3.03E-12 2.27E-12 2.69E-12
  4.94E-12 1.72E-12 2.23E-12 3.55E-12 2.78E-12 2.28E-12 6.18E-12 3.34E-12
  4.47E-12 2.73E-12 4.56E-12 1.00E-11 2.14E-12 4.25E-12 6.19E-12 2.70E-12
  5.72E-12 1.15E-11 2.66E-12 3.51E-12 5.55E-12 4.18E-12 6.20E-12 1.17E-11
  3.73E-12 1.31E-11 4.05E-12 5.54E-12 1.26E-11 2.91E-12 5.85E-12 1.02E-11
  8.05E-12 1.61E-11 8.91E-12 6.22E-12 7.72E-12 1.68E-11 1.66E-11 5.80E-12
  1.30E-11 2.41E-11 4.57E-12 3.18E-11 7.56E-12 1.08E-11 1.56E-11 1.31E-11
  5.21E-12 1.00E-11 1.50E-11 1.66E-11 4.80E-11 1.45E-11 2.39E-11 5.75E-11
  5.87E-11 2.21E-11 4.70E-11 1.42E-11 2.55E-11 7.64E-11 1.83E-11 4.22E-11
  2.11E-11 3.52E-11 8.17E-11 1.70E-11 3.57E-11 6.80E-11 2.43E-11 4.51E-11
  7.12E-11 4.99E-11 5.27E-11 3.57E-11 7.34E-11 1.28E-10 5.53E-11 7.28E-11
  2.61E-10 4.69E-11 1.19E-10 1.94E-10 1.18E-10 8.72E-11 1.23E-10 1.01E-10
  1.39E-10 3.30E-10 1.04E-10 1.86E-10 3.41E-10 6.54E-11 2.61E-10 1.61E-10
  2.06E-09 3.46E-09 8.17E-09 3.32E-09 4.96E-09 5.14E-09 2.30E-09 3.20E-09
  6.23E-09 6.19E-09 7.45E-09 2.81E-09 5.24E-09 6.50E-09 2.91E-09 5.21E-09
  8.77E-09 1.70E-09 4.73E-09 1.13E-08 1.93E-09 6.16E-09 1.23E-08 6.64E-09
  9.78E-09 2.50E-08 3.26E-08 1.33E-08 3.16E-08 1.28E-08 2.61E-08 4.69E-08
  1.62E-08 1.93E-08 2.43E-08 4.14E-08 2.08E-08 5.43E-08 7.62E-09 2.10E-08
  3.75E-08 2.34E-08 4.84E-08 5.41E-08 1.31E-08 2.77E-08 4.38E-08 4.41E-08
  1.52E-08 2.26E-08 5.29E-08 7.80E-07 1.36E-06 1.94E-06 2.39E-06 3.38E-06
  1.43E-06 1.76E-06 3.54E-06 7.42E-07 1.45E-06 2.47E-06 4.07E-06 3.56E-05
  4.20E-05 3.36E-05 3.42E-05 3.05E-05 2.93E-05 3.60E-05 3.41E-05 2.80E-05
  4.21E-05 5.34E-05 6.63E-05 5.35E-05 5.13E-05 7.36E-05 1.02E-04 1.36E-04
  1.75E-04 1.97E-04
 reduced coordinates (array xred) for  107 atoms
       0.000000000000      0.163260959810      0.163260959810
       0.163260959810      0.000000000000      0.163260959810
       0.163260959810      0.163260959810      0.000000000000
       0.000000000000      0.166415066890      0.500000000000
       0.166415066890      0.000000000000      0.500000000000
       0.165969123860      0.165969123860      0.332135680110
       0.000000000000      0.000000000000      0.332513080460
       0.000000000000      0.163260959810      0.836739040190
       0.163260959810      0.000000000000      0.836739040190
       0.165969123860      0.165969123860      0.667864319890
       0.000000000000      0.000000000000      0.667486919540
       0.000000000000      0.500000000000      0.166415066890
       0.165969123860      0.332135680110      0.165969123860
       0.166415066890      0.500000000000      0.000000000000
       0.000000000000      0.332513080460      0.000000000000
       0.000000000000      0.500000000000      0.500000000000
       0.166496231940      0.332916578170      0.500000000000
       0.166496231940      0.500000000000      0.332916578170
       0.000000000000      0.333140408550      0.333140408550
       0.000000000000      0.500000000000      0.833584933110
       0.165969123860      0.332135680110      0.834030876140
       0.166496231940      0.500000000000      0.667083421830
       0.000000000000      0.333140408550      0.666859591450
       0.000000000000      0.836739040190      0.163260959810
       0.165969123860      0.667864319890      0.165969123860
       0.163260959810      0.836739040190      0.000000000000
       0.000000000000      0.667486919540      0.000000000000
       0.000000000000      0.833584933110      0.500000000000
       0.166496231940      0.667083421830      0.500000000000
       0.165969123860      0.834030876140      0.332135680110
       0.000000000000      0.666859591450      0.333140408550
       0.000000000000      0.836739040190      0.836739040190
       0.165969123860      0.667864319890      0.834030876140
       0.165969123860      0.834030876140      0.667864319890
       0.000000000000      0.666859591450      0.666859591450
       0.332135680110      0.165969123860      0.165969123860
       0.500000000000      0.000000000000      0.166415066890
       0.500000000000      0.166415066890      0.000000000000
       0.332513080460      0.000000000000      0.000000000000
       0.332916578170      0.166496231940      0.500000000000
       0.500000000000      0.000000000000      0.500000000000
       0.500000000000      0.166496231940      0.332916578170
       0.333140408550      0.000000000000      0.333140408550
       0.332135680110      0.165969123860      0.834030876140
       0.500000000000      0.000000000000      0.833584933110
       0.500000000000      0.166496231940      0.667083421830
       0.333140408550      0.000000000000      0.666859591450
       0.332916578170      0.500000000000      0.166496231940
       0.500000000000      0.332916578170      0.166496231940
       0.500000000000      0.500000000000      0.000000000000
       0.333140408550      0.333140408550      0.000000000000
       0.333161164200      0.500000000000      0.500000000000
       0.500000000000      0.333161164200      0.500000000000
       0.500000000000      0.500000000000      0.333161164200
       0.333028878290      0.333028878290      0.333028878290
       0.332916578170      0.500000000000      0.833503768060
       0.500000000000      0.332916578170      0.833503768060
       0.500000000000      0.500000000000      0.666838835800
       0.333028878290      0.333028878290      0.666971121710
       0.332135680110      0.834030876140      0.165969123860
       0.500000000000      0.667083421830      0.166496231940
       0.500000000000      0.833584933110      0.000000000000
       0.333140408550      0.666859591450      0.000000000000
       0.332916578170      0.833503768060      0.500000000000
       0.500000000000      0.666838835800      0.500000000000
       0.500000000000      0.833503768060      0.332916578170
       0.333028878290      0.666971121710      0.333028878290
       0.332135680110      0.834030876140      0.834030876140
       0.500000000000      0.667083421830      0.833503768060
       0.500000000000      0.833503768060      0.667083421830
       0.333028878290      0.666971121710      0.666971121710
       0.667864319890      0.165969123860      0.165969123860
       0.836739040190      0.000000000000      0.163260959810
       0.836739040190      0.163260959810      0.000000000000
       0.667486919540      0.000000000000      0.000000000000
       0.667083421830      0.166496231940      0.500000000000
       0.833584933110      0.000000000000      0.500000000000
       0.834030876140      0.165969123860      0.332135680110
       0.666859591450      0.000000000000      0.333140408550
       0.667864319890      0.165969123860      0.834030876140
       0.836739040190      0.000000000000      0.836739040190
       0.834030876140      0.165969123860      0.667864319890
       0.666859591450      0.000000000000      0.666859591450
       0.667083421830      0.500000000000      0.166496231940
       0.834030876140      0.332135680110      0.165969123860
       0.833584933110      0.500000000000      0.000000000000
       0.666859591450      0.333140408550      0.000000000000
       0.666838835800      0.500000000000      0.500000000000
       0.833503768060      0.332916578170      0.500000000000
       0.833503768060      0.500000000000      0.332916578170
       0.666971121710      0.333028878290      0.333028878290
       0.667083421830      0.500000000000      0.833503768060
       0.834030876140      0.332135680110      0.834030876140
       0.833503768060      0.500000000000      0.667083421830
       0.666971121710      0.333028878290      0.666971121710
       0.667864319890      0.834030876140      0.165969123860
       0.834030876140      0.667864319890      0.165969123860
       0.836739040190      0.836739040190      0.000000000000
       0.666859591450      0.666859591450      0.000000000000
       0.667083421830      0.833503768060      0.500000000000
       0.833503768060      0.667083421830      0.500000000000
       0.834030876140      0.834030876140      0.332135680110
       0.666971121710      0.666971121710      0.333028878290
       0.667864319890      0.834030876140      0.834030876140
       0.834030876140      0.667864319890      0.834030876140
       0.834030876140      0.834030876140      0.667864319890
       0.666971121710      0.666971121710      0.666971121710
 rms dE/dt=  1.7650E-02; max dE/dt=  6.4486E-02; dE/dt below (all hartree)
    1       0.000000000000      0.047376151790      0.047376151790
    2       0.047376151790      0.000000000000      0.047376151790
    3       0.047376151790      0.047376151790      0.000000000000
    4       0.000000000000     -0.023674162644      0.000000000000
    5      -0.023674162644     -0.000000000000      0.000000000000
    6       0.001789715720      0.001789715720      0.007893927501
    7       0.000000000000      0.000000000000      0.026314166002
    8       0.000000000000      0.047376151790     -0.047376151790
    9       0.047376151790      0.000000000000     -0.047376151790
   10       0.001789715720      0.001789715720     -0.007893927501
   11      -0.000000000000      0.000000000000     -0.026314166002
   12       0.000000000000      0.000000000000     -0.023674162644
   13       0.001789715720      0.007893927501      0.001789715720
   14      -0.023674162644      0.000000000000     -0.000000000000
   15       0.000000000000      0.026314166002      0.000000000000
   16       0.000000000000      0.000000000000      0.000000000000
   17       0.000903292312     -0.015955236095      0.000000000000
   18       0.000903292312      0.000000000000     -0.015955236095
   19       0.000000000000      0.009412185677      0.009412185677
   20       0.000000000000      0.000000000000      0.023674162644
   21       0.001789715720      0.007893927501     -0.001789715720
   22       0.000903292312      0.000000000000      0.015955236095
   23       0.000000000000      0.009412185677     -0.009412185677
   24       0.000000000000     -0.047376151790      0.047376151790
   25       0.001789715720     -0.007893927501      0.001789715720
   26       0.047376151790     -0.047376151790      0.000000000000
   27      -0.000000000000     -0.026314166002     -0.000000000000
   28       0.000000000000      0.023674162644      0.000000000000
   29       0.000903292312      0.015955236095      0.000000000000
   30       0.001789715720     -0.001789715720      0.007893927501
   31       0.000000000000     -0.009412185677      0.009412185677
   32       0.000000000000     -0.047376151790     -0.047376151790
   33       0.001789715720     -0.007893927501     -0.001789715720
   34       0.001789715720     -0.001789715720     -0.007893927501
   35       0.000000000000     -0.009412185677     -0.009412185677
   36       0.007893927501      0.001789715720      0.001789715720
   37       0.000000000000      0.000000000000     -0.023674162644
   38       0.000000000000     -0.023674162644     -0.000000000000
   39       0.026314166002      0.000000000000      0.000000000000
   40      -0.015955236095      0.000903292312      0.000000000000
   41       0.000000000000      0.000000000000      0.000000000000
   42       0.000000000000      0.000903292312     -0.015955236095
   43       0.009412185677      0.000000000000      0.009412185677
   44       0.007893927501      0.001789715720     -0.001789715720
   45       0.000000000000     -0.000000000000      0.023674162644
   46       0.000000000000      0.000903292312      0.015955236095
   47       0.009412185677      0.000000000000     -0.009412185677
   48      -0.015955236095      0.000000000000      0.000903292312
   49       0.000000000000     -0.015955236095      0.000903292312
   50       0.000000000000      0.000000000000      0.000000000000
   51       0.009412185677      0.009412185677      0.000000000000
   52       0.064486251341      0.000000000000      0.000000000000
   53       0.000000000000      0.064486251341      0.000000000000
   54       0.000000000000      0.000000000000      0.064486251341
   55       0.004045397239      0.004045397239      0.004045397239
   56      -0.015955236095      0.000000000000     -0.000903292312
   57       0.000000000000     -0.015955236095     -0.000903292312
   58      -0.000000000000     -0.000000000000     -0.064486251341
   59       0.004045397239      0.004045397239     -0.004045397239
   60       0.007893927501     -0.001789715720      0.001789715720
   61       0.000000000000      0.015955236095      0.000903292312
   62       0.000000000000      0.023674162644      0.000000000000
   63       0.009412185677     -0.009412185677      0.000000000000
   64      -0.015955236095     -0.000903292312      0.000000000000
   65      -0.000000000000     -0.064486251341     -0.000000000000
   66       0.000000000000     -0.000903292312     -0.015955236095
   67       0.004045397239     -0.004045397239      0.004045397239
   68       0.007893927501     -0.001789715720     -0.001789715720
   69       0.000000000000      0.015955236095     -0.000903292312
   70       0.000000000000     -0.000903292312      0.015955236095
   71       0.004045397239     -0.004045397239     -0.004045397239
   72      -0.007893927501      0.001789715720      0.001789715720
   73      -0.047376151790      0.000000000000      0.047376151790
   74      -0.047376151790      0.047376151790      0.000000000000
   75      -0.026314166002     -0.000000000000      0.000000000000
   76       0.015955236095      0.000903292312      0.000000000000
   77       0.023674162644      0.000000000000      0.000000000000
   78      -0.001789715720      0.001789715720      0.007893927501
   79      -0.009412185677      0.000000000000      0.009412185677
   80      -0.007893927501      0.001789715720     -0.001789715720
   81      -0.047376151790      0.000000000000     -0.047376151790
   82      -0.001789715720      0.001789715720     -0.007893927501
   83      -0.009412185677      0.000000000000     -0.009412185677
   84       0.015955236095      0.000000000000      0.000903292312
   85      -0.001789715720      0.007893927501      0.001789715720
   86       0.023674162644      0.000000000000      0.000000000000
   87      -0.009412185677      0.009412185677      0.000000000000
   88      -0.064486251341      0.000000000000      0.000000000000
   89      -0.000903292312     -0.015955236095      0.000000000000
   90      -0.000903292312      0.000000000000     -0.015955236095
   91      -0.004045397239      0.004045397239      0.004045397239
   92       0.015955236095      0.000000000000     -0.000903292312
   93      -0.001789715720      0.007893927501     -0.001789715720
   94      -0.000903292312      0.000000000000      0.015955236095
   95      -0.004045397239      0.004045397239     -0.004045397239
   96      -0.007893927501     -0.001789715720      0.001789715720
   97      -0.001789715720     -0.007893927501      0.001789715720
   98      -0.047376151790     -0.047376151790      0.000000000000
   99      -0.009412185677     -0.009412185677      0.000000000000
  100       0.015955236095     -0.000903292312      0.000000000000
  101      -0.000903292312      0.015955236095      0.000000000000
  102      -0.001789715720     -0.001789715720      0.007893927501
  103      -0.004045397239     -0.004045397239      0.004045397239
  104      -0.007893927501     -0.001789715720     -0.001789715720
  105      -0.001789715720     -0.007893927501     -0.001789715720
  106      -0.001789715720     -0.001789715720     -0.007893927501
  107      -0.004045397239     -0.004045397239     -0.004045397239
 
 cartesian coordinates (angstrom) at end:
    1      0.00000000000000     1.98792545642138     1.98792545642138
    2      1.98792545642138     0.00000000000000     1.98792545642138
    3      1.98792545642138     1.98792545642138     0.00000000000000
    4      0.00000000000000     2.02633102358151     6.08818378482795
    5      2.02633102358151     0.00000000000000     6.08818378482795
    6      2.02090105733311     2.02090105733311     4.04420612401701
    7      0.00000000000000     0.00000000000000     4.04880148939953
    8      0.00000000000000     1.98792545642138    10.18844211323452
    9      1.98792545642138     0.00000000000000    10.18844211323452
   10      2.02090105733311     2.02090105733311     8.13216144563889
   11      0.00000000000000     0.00000000000000     8.12756608025637
   12      0.00000000000000     6.08818378482795     2.02633102358151
   13      2.02090105733311     4.04420612401701     2.02090105733311
   14      2.02633102358151     6.08818378482795     0.00000000000000
   15      0.00000000000000     4.04880148939953     0.00000000000000
   16      0.00000000000000     6.08818378482795     6.08818378482795
   17      2.02731931906412     4.05371462583000     6.08818378482795
   18      2.02731931906412     6.08818378482795     4.05371462583000
   19      0.00000000000000     4.05644006681014     4.05644006681014
   20      0.00000000000000     6.08818378482795    10.15003654607439
   21      2.02090105733311     4.04420612401701    10.15546651232279
   22      2.02731931906412     6.08818378482795     8.12265294382590
   23      0.00000000000000     4.05644006681014     8.11992750284576
   24      0.00000000000000    10.18844211323452     1.98792545642138
   25      2.02090105733311     8.13216144563889     2.02090105733311
   26      1.98792545642138    10.18844211323452     0.00000000000000
   27      0.00000000000000     8.12756608025637     0.00000000000000
   28      0.00000000000000    10.15003654607439     6.08818378482795
   29      2.02731931906412     8.12265294382590     6.08818378482795
   30      2.02090105733311    10.15546651232279     4.04420612401701
   31      0.00000000000000     8.11992750284576     4.05644006681014
   32      0.00000000000000    10.18844211323452    10.18844211323452
   33      2.02090105733311     8.13216144563889    10.15546651232279
   34      2.02090105733311    10.15546651232279     8.13216144563889
   35      0.00000000000000     8.11992750284576     8.11992750284576
   36      4.04420612401701     2.02090105733311     2.02090105733311
   37      6.08818378482795     0.00000000000000     2.02633102358151
   38      6.08818378482795     2.02633102358151     0.00000000000000
   39      4.04880148939953     0.00000000000000     0.00000000000000
   40      4.05371462583000     2.02731931906412     6.08818378482795
   41      6.08818378482795     0.00000000000000     6.08818378482795
   42      6.08818378482795     2.02731931906412     4.05371462583000
   43      4.05644006681014     0.00000000000000     4.05644006681014
   44      4.04420612401701     2.02090105733311    10.15546651232279
   45      6.08818378482795     0.00000000000000    10.15003654607439
   46      6.08818378482795     2.02731931906412     8.12265294382590
   47      4.05644006681014     0.00000000000000     8.11992750284576
   48      4.05371462583000     6.08818378482795     2.02731931906412
   49      6.08818378482795     4.05371462583000     2.02731931906412
   50      6.08818378482795     6.08818378482795     0.00000000000000
   51      4.05644006681014     4.05644006681014     0.00000000000000
   52      4.05669279523369     6.08818378482795     6.08818378482795
   53      6.08818378482795     4.05669279523369     6.08818378482795
   54      6.08818378482795     6.08818378482795     4.05669279523369
   55      4.05508203336924     4.05508203336924     4.05508203336924
   56      4.05371462583000     6.08818378482795    10.14904825059178
   57      6.08818378482795     4.05371462583000    10.14904825059178
   58      6.08818378482795     6.08818378482795     8.11967477442222
   59      4.05508203336924     4.05508203336924     8.12128553628666
   60      4.04420612401701    10.15546651232279     2.02090105733311
   61      6.08818378482795     8.12265294382590     2.02731931906412
   62      6.08818378482795    10.15003654607439     0.00000000000000
   63      4.05644006681014     8.11992750284576     0.00000000000000
   64      4.05371462583000    10.14904825059178     6.08818378482795
   65      6.08818378482795     8.11967477442222     6.08818378482795
   66      6.08818378482795    10.14904825059178     4.05371462583000
   67      4.05508203336924     8.12128553628666     4.05508203336924
   68      4.04420612401701    10.15546651232279    10.15546651232279
   69      6.08818378482795     8.12265294382590    10.14904825059178
   70      6.08818378482795    10.14904825059178     8.12265294382590
   71      4.05508203336924     8.12128553628666     8.12128553628666
   72      8.13216144563889     2.02090105733311     2.02090105733311
   73     10.18844211323452     0.00000000000000     1.98792545642138
   74     10.18844211323452     1.98792545642138     0.00000000000000
   75      8.12756608025637     0.00000000000000     0.00000000000000
   76      8.12265294382590     2.02731931906412     6.08818378482795
   77     10.15003654607439     0.00000000000000     6.08818378482795
   78     10.15546651232279     2.02090105733311     4.04420612401701
   79      8.11992750284576     0.00000000000000     4.05644006681014
   80      8.13216144563889     2.02090105733311    10.15546651232279
   81     10.18844211323452     0.00000000000000    10.18844211323452
   82     10.15546651232279     2.02090105733311     8.13216144563889
   83      8.11992750284576     0.00000000000000     8.11992750284576
   84      8.12265294382590     6.08818378482795     2.02731931906412
   85     10.15546651232279     4.04420612401701     2.02090105733311
   86     10.15003654607439     6.08818378482795     0.00000000000000
   87      8.11992750284576     4.05644006681014     0.00000000000000
   88      8.11967477442222     6.08818378482795     6.08818378482795
   89     10.14904825059178     4.05371462583000     6.08818378482795
   90     10.14904825059178     6.08818378482795     4.05371462583000
   91      8.12128553628666     4.05508203336924     4.05508203336924
   92      8.12265294382590     6.08818378482795    10.14904825059178
   93     10.15546651232279     4.04420612401701    10.15546651232279
   94     10.14904825059178     6.08818378482795     8.12265294382590
   95      8.12128553628666     4.05508203336924     8.12128553628666
   96      8.13216144563889    10.15546651232279     2.02090105733311
   97     10.15546651232279     8.13216144563889     2.02090105733311
   98     10.18844211323452    10.18844211323452     0.00000000000000
   99      8.11992750284576     8.11992750284576     0.00000000000000
  100      8.12265294382590    10.14904825059178     6.08818378482795
  101     10.14904825059178     8.12265294382590     6.08818378482795
  102     10.15546651232279    10.15546651232279     4.04420612401701
  103      8.12128553628666     8.12128553628666     4.05508203336924
  104      8.13216144563889    10.15546651232279    10.15546651232279
  105     10.15546651232279     8.13216144563889    10.15546651232279
  106     10.15546651232279    10.15546651232279     8.13216144563889
  107      8.12128553628666     8.12128553628666     8.12128553628666
 
 cartesian forces (hartree/bohr) at end:
    1     -0.00000000000000    -0.00205893749630    -0.00205893749630
    2     -0.00205893749630    -0.00000000000000    -0.00205893749630
    3     -0.00205893749630    -0.00205893749630    -0.00000000000000
    4     -0.00000000000000     0.00102886408710    -0.00000000000000
    5      0.00102886408710    -0.00000000000000    -0.00000000000000
    6     -0.00007777990961    -0.00007777990961    -0.00034306508044
    7     -0.00000000000000    -0.00000000000000    -0.00114359695794
    8     -0.00000000000000    -0.00205893749630     0.00205893749630
    9     -0.00205893749630    -0.00000000000000     0.00205893749630
   10     -0.00007777990961    -0.00007777990961     0.00034306508044
   11     -0.00000000000000    -0.00000000000000     0.00114359695794
   12     -0.00000000000000    -0.00000000000000     0.00102886408710
   13     -0.00007777990961    -0.00034306508044    -0.00007777990961
   14      0.00102886408710    -0.00000000000000    -0.00000000000000
   15     -0.00000000000000    -0.00114359695794    -0.00000000000000
[...]
                       0.0000000000E+00  0.0000000000E+00  7.6511259814E+00
                       0.0000000000E+00  3.7566346852E+00  1.9253365315E+01
                       3.7566346852E+00  0.0000000000E+00  1.9253365315E+01
                       3.8189495400E+00  3.8189495400E+00  1.5367558001E+01
                       0.0000000000E+00  0.0000000000E+00  1.5358874019E+01
                       0.0000000000E+00  1.1505000000E+01  3.8292106891E+00
                       3.8189495400E+00  7.6424419993E+00  3.8189495400E+00
                       3.8292106891E+00  1.1505000000E+01  0.0000000000E+00
                       0.0000000000E+00  7.6511259814E+00  0.0000000000E+00
                       0.0000000000E+00  1.1505000000E+01  1.1505000000E+01
                       3.8310782969E+00  7.6604104637E+00  1.1505000000E+01
                       3.8310782969E+00  1.1505000000E+01  7.6604104637E+00
                       0.0000000000E+00  7.6655608007E+00  7.6655608007E+00
                       0.0000000000E+00  1.1505000000E+01  1.9180789311E+01
                       3.8189495400E+00  7.6424419993E+00  1.9191050460E+01
                       3.8310782969E+00  1.1505000000E+01  1.5349589536E+01
                       0.0000000000E+00  7.6655608007E+00  1.5344439199E+01
                       0.0000000000E+00  1.9253365315E+01  3.7566346852E+00
                       3.8189495400E+00  1.5367558001E+01  3.8189495400E+00
                       3.7566346852E+00  1.9253365315E+01  0.0000000000E+00
                       0.0000000000E+00  1.5358874019E+01  0.0000000000E+00
                       0.0000000000E+00  1.9180789311E+01  1.1505000000E+01
                       3.8310782969E+00  1.5349589536E+01  1.1505000000E+01
                       3.8189495400E+00  1.9191050460E+01  7.6424419993E+00
                       0.0000000000E+00  1.5344439199E+01  7.6655608007E+00
                       0.0000000000E+00  1.9253365315E+01  1.9253365315E+01
                       3.8189495400E+00  1.5367558001E+01  1.9191050460E+01
                       3.8189495400E+00  1.9191050460E+01  1.5367558001E+01
                       0.0000000000E+00  1.5344439199E+01  1.5344439199E+01
                       7.6424419993E+00  3.8189495400E+00  3.8189495400E+00
                       1.1505000000E+01  0.0000000000E+00  3.8292106891E+00
                       1.1505000000E+01  3.8292106891E+00  0.0000000000E+00
                       7.6511259814E+00  0.0000000000E+00  0.0000000000E+00
                       7.6604104637E+00  3.8310782969E+00  1.1505000000E+01
                       1.1505000000E+01  0.0000000000E+00  1.1505000000E+01
                       1.1505000000E+01  3.8310782969E+00  7.6604104637E+00
                       7.6655608007E+00  0.0000000000E+00  7.6655608007E+00
                       7.6424419993E+00  3.8189495400E+00  1.9191050460E+01
                       1.1505000000E+01  0.0000000000E+00  1.9180789311E+01
                       1.1505000000E+01  3.8310782969E+00  1.5349589536E+01
                       7.6655608007E+00  0.0000000000E+00  1.5344439199E+01
                       7.6604104637E+00  1.1505000000E+01  3.8310782969E+00
                       1.1505000000E+01  7.6604104637E+00  3.8310782969E+00
                       1.1505000000E+01  1.1505000000E+01  0.0000000000E+00
                       7.6655608007E+00  7.6655608007E+00  0.0000000000E+00
                       7.6660383882E+00  1.1505000000E+01  1.1505000000E+01
                       1.1505000000E+01  7.6660383882E+00  1.1505000000E+01
                       1.1505000000E+01  1.1505000000E+01  7.6660383882E+00
                       7.6629944895E+00  7.6629944895E+00  7.6629944895E+00
                       7.6604104637E+00  1.1505000000E+01  1.9178921703E+01
                       1.1505000000E+01  7.6604104637E+00  1.9178921703E+01
                       1.1505000000E+01  1.1505000000E+01  1.5343961612E+01
                       7.6629944895E+00  7.6629944895E+00  1.5347005511E+01
                       7.6424419993E+00  1.9191050460E+01  3.8189495400E+00
                       1.1505000000E+01  1.5349589536E+01  3.8310782969E+00
                       1.1505000000E+01  1.9180789311E+01  0.0000000000E+00
                       7.6655608007E+00  1.5344439199E+01  0.0000000000E+00
                       7.6604104637E+00  1.9178921703E+01  1.1505000000E+01
                       1.1505000000E+01  1.5343961612E+01  1.1505000000E+01
                       1.1505000000E+01  1.9178921703E+01  7.6604104637E+00
                       7.6629944895E+00  1.5347005511E+01  7.6629944895E+00
                       7.6424419993E+00  1.9191050460E+01  1.9191050460E+01
                       1.1505000000E+01  1.5349589536E+01  1.9178921703E+01
                       1.1505000000E+01  1.9178921703E+01  1.5349589536E+01
                       7.6629944895E+00  1.5347005511E+01  1.5347005511E+01
                       1.5367558001E+01  3.8189495400E+00  3.8189495400E+00
                       1.9253365315E+01  0.0000000000E+00  3.7566346852E+00
                       1.9253365315E+01  3.7566346852E+00  0.0000000000E+00
                       1.5358874019E+01  0.0000000000E+00  0.0000000000E+00
                       1.5349589536E+01  3.8310782969E+00  1.1505000000E+01
                       1.9180789311E+01  0.0000000000E+00  1.1505000000E+01
                       1.9191050460E+01  3.8189495400E+00  7.6424419993E+00
                       1.5344439199E+01  0.0000000000E+00  7.6655608007E+00
                       1.5367558001E+01  3.8189495400E+00  1.9191050460E+01
                       1.9253365315E+01  0.0000000000E+00  1.9253365315E+01
                       1.9191050460E+01  3.8189495400E+00  1.5367558001E+01
                       1.5344439199E+01  0.0000000000E+00  1.5344439199E+01
                       1.5349589536E+01  1.1505000000E+01  3.8310782969E+00
                       1.9191050460E+01  7.6424419993E+00  3.8189495400E+00
                       1.9180789311E+01  1.1505000000E+01  0.0000000000E+00
                       1.5344439199E+01  7.6655608007E+00  0.0000000000E+00
                       1.5343961612E+01  1.1505000000E+01  1.1505000000E+01
                       1.9178921703E+01  7.6604104637E+00  1.1505000000E+01
                       1.9178921703E+01  1.1505000000E+01  7.6604104637E+00
                       1.5347005511E+01  7.6629944895E+00  7.6629944895E+00
                       1.5349589536E+01  1.1505000000E+01  1.9178921703E+01
                       1.9191050460E+01  7.6424419993E+00  1.9191050460E+01
                       1.9178921703E+01  1.1505000000E+01  1.5349589536E+01
                       1.5347005511E+01  7.6629944895E+00  1.5347005511E+01
                       1.5367558001E+01  1.9191050460E+01  3.8189495400E+00
                       1.9191050460E+01  1.5367558001E+01  3.8189495400E+00
                       1.9253365315E+01  1.9253365315E+01  0.0000000000E+00
                       1.5344439199E+01  1.5344439199E+01  0.0000000000E+00
                       1.5349589536E+01  1.9178921703E+01  1.1505000000E+01
                       1.9178921703E+01  1.5349589536E+01  1.1505000000E+01
                       1.9191050460E+01  1.9191050460E+01  7.6424419993E+00
                       1.5347005511E+01  1.5347005511E+01  7.6629944895E+00
                       1.5367558001E+01  1.9191050460E+01  1.9191050460E+01
                       1.9191050460E+01  1.5367558001E+01  1.9191050460E+01
                       1.9191050460E+01  1.9191050460E+01  1.5367558001E+01
                       1.5347005511E+01  1.5347005511E+01  1.5347005511E+01
             xred      0.0000000000E+00  1.6326095981E-01  1.6326095981E-01
                       1.6326095981E-01  0.0000000000E+00  1.6326095981E-01
                       1.6326095981E-01  1.6326095981E-01  0.0000000000E+00
                       0.0000000000E+00  1.6641506689E-01  5.0000000000E-01
                       1.6641506689E-01  0.0000000000E+00  5.0000000000E-01
                       1.6596912386E-01  1.6596912386E-01  3.3213568011E-01
                       0.0000000000E+00  0.0000000000E+00  3.3251308046E-01
                       0.0000000000E+00  1.6326095981E-01  8.3673904019E-01
                       1.6326095981E-01  0.0000000000E+00  8.3673904019E-01
                       1.6596912386E-01  1.6596912386E-01  6.6786431989E-01
                       0.0000000000E+00  0.0000000000E+00  6.6748691954E-01
                       0.0000000000E+00  5.0000000000E-01  1.6641506689E-01
                       1.6596912386E-01  3.3213568011E-01  1.6596912386E-01
                       1.6641506689E-01  5.0000000000E-01  0.0000000000E+00
                       0.0000000000E+00  3.3251308046E-01  0.0000000000E+00
                       0.0000000000E+00  5.0000000000E-01  5.0000000000E-01
                       1.6649623194E-01  3.3291657817E-01  5.0000000000E-01
                       1.6649623194E-01  5.0000000000E-01  3.3291657817E-01
                       0.0000000000E+00  3.3314040855E-01  3.3314040855E-01
                       0.0000000000E+00  5.0000000000E-01  8.3358493311E-01
                       1.6596912386E-01  3.3213568011E-01  8.3403087614E-01
                       1.6649623194E-01  5.0000000000E-01  6.6708342183E-01
                       0.0000000000E+00  3.3314040855E-01  6.6685959145E-01
                       0.0000000000E+00  8.3673904019E-01  1.6326095981E-01
                       1.6596912386E-01  6.6786431989E-01  1.6596912386E-01
                       1.6326095981E-01  8.3673904019E-01  0.0000000000E+00
                       0.0000000000E+00  6.6748691954E-01  0.0000000000E+00
                       0.0000000000E+00  8.3358493311E-01  5.0000000000E-01
                       1.6649623194E-01  6.6708342183E-01  5.0000000000E-01
                       1.6596912386E-01  8.3403087614E-01  3.3213568011E-01
                       0.0000000000E+00  6.6685959145E-01  3.3314040855E-01
                       0.0000000000E+00  8.3673904019E-01  8.3673904019E-01
                       1.6596912386E-01  6.6786431989E-01  8.3403087614E-01
                       1.6596912386E-01  8.3403087614E-01  6.6786431989E-01
                       0.0000000000E+00  6.6685959145E-01  6.6685959145E-01
                       3.3213568011E-01  1.6596912386E-01  1.6596912386E-01
                       5.0000000000E-01  0.0000000000E+00  1.6641506689E-01
                       5.0000000000E-01  1.6641506689E-01  0.0000000000E+00
                       3.3251308046E-01  0.0000000000E+00  0.0000000000E+00
                       3.3291657817E-01  1.6649623194E-01  5.0000000000E-01
                       5.0000000000E-01  0.0000000000E+00  5.0000000000E-01
                       5.0000000000E-01  1.6649623194E-01  3.3291657817E-01
                       3.3314040855E-01  0.0000000000E+00  3.3314040855E-01
                       3.3213568011E-01  1.6596912386E-01  8.3403087614E-01
                       5.0000000000E-01  0.0000000000E+00  8.3358493311E-01
                       5.0000000000E-01  1.6649623194E-01  6.6708342183E-01
                       3.3314040855E-01  0.0000000000E+00  6.6685959145E-01
                       3.3291657817E-01  5.0000000000E-01  1.6649623194E-01
                       5.0000000000E-01  3.3291657817E-01  1.6649623194E-01
                       5.0000000000E-01  5.0000000000E-01  0.0000000000E+00
                       3.3314040855E-01  3.3314040855E-01  0.0000000000E+00
                       3.3316116420E-01  5.0000000000E-01  5.0000000000E-01
                       5.0000000000E-01  3.3316116420E-01  5.0000000000E-01
                       5.0000000000E-01  5.0000000000E-01  3.3316116420E-01
                       3.3302887829E-01  3.3302887829E-01  3.3302887829E-01
                       3.3291657817E-01  5.0000000000E-01  8.3350376806E-01
                       5.0000000000E-01  3.3291657817E-01  8.3350376806E-01
                       5.0000000000E-01  5.0000000000E-01  6.6683883580E-01
                       3.3302887829E-01  3.3302887829E-01  6.6697112171E-01
                       3.3213568011E-01  8.3403087614E-01  1.6596912386E-01
                       5.0000000000E-01  6.6708342183E-01  1.6649623194E-01
                       5.0000000000E-01  8.3358493311E-01  0.0000000000E+00
                       3.3314040855E-01  6.6685959145E-01  0.0000000000E+00
                       3.3291657817E-01  8.3350376806E-01  5.0000000000E-01
                       5.0000000000E-01  6.6683883580E-01  5.0000000000E-01
                       5.0000000000E-01  8.3350376806E-01  3.3291657817E-01
                       3.3302887829E-01  6.6697112171E-01  3.3302887829E-01
                       3.3213568011E-01  8.3403087614E-01  8.3403087614E-01
                       5.0000000000E-01  6.6708342183E-01  8.3350376806E-01
                       5.0000000000E-01  8.3350376806E-01  6.6708342183E-01
                       3.3302887829E-01  6.6697112171E-01  6.6697112171E-01
                       6.6786431989E-01  1.6596912386E-01  1.6596912386E-01
                       8.3673904019E-01  0.0000000000E+00  1.6326095981E-01
                       8.3673904019E-01  1.6326095981E-01  0.0000000000E+00
                       6.6748691954E-01  0.0000000000E+00  0.0000000000E+00
                       6.6708342183E-01  1.6649623194E-01  5.0000000000E-01
                       8.3358493311E-01  0.0000000000E+00  5.0000000000E-01
                       8.3403087614E-01  1.6596912386E-01  3.3213568011E-01
                       6.6685959145E-01  0.0000000000E+00  3.3314040855E-01
                       6.6786431989E-01  1.6596912386E-01  8.3403087614E-01
                       8.3673904019E-01  0.0000000000E+00  8.3673904019E-01
                       8.3403087614E-01  1.6596912386E-01  6.6786431989E-01
                       6.6685959145E-01  0.0000000000E+00  6.6685959145E-01
                       6.6708342183E-01  5.0000000000E-01  1.6649623194E-01
                       8.3403087614E-01  3.3213568011E-01  1.6596912386E-01
                       8.3358493311E-01  5.0000000000E-01  0.0000000000E+00
                       6.6685959145E-01  3.3314040855E-01  0.0000000000E+00
                       6.6683883580E-01  5.0000000000E-01  5.0000000000E-01
                       8.3350376806E-01  3.3291657817E-01  5.0000000000E-01
                       8.3350376806E-01  5.0000000000E-01  3.3291657817E-01
                       6.6697112171E-01  3.3302887829E-01  3.3302887829E-01
                       6.6708342183E-01  5.0000000000E-01  8.3350376806E-01
                       8.3403087614E-01  3.3213568011E-01  8.3403087614E-01
                       8.3350376806E-01  5.0000000000E-01  6.6708342183E-01
                       6.6697112171E-01  3.3302887829E-01  6.6697112171E-01
                       6.6786431989E-01  8.3403087614E-01  1.6596912386E-01
                       8.3403087614E-01  6.6786431989E-01  1.6596912386E-01
                       8.3673904019E-01  8.3673904019E-01  0.0000000000E+00
                       6.6685959145E-01  6.6685959145E-01  0.0000000000E+00
                       6.6708342183E-01  8.3350376806E-01  5.0000000000E-01
                       8.3350376806E-01  6.6708342183E-01  5.0000000000E-01
                       8.3403087614E-01  8.3403087614E-01  3.3213568011E-01
                       6.6697112171E-01  6.6697112171E-01  3.3302887829E-01
                       6.6786431989E-01  8.3403087614E-01  8.3403087614E-01
                       8.3403087614E-01  6.6786431989E-01  8.3403087614E-01
                       8.3403087614E-01  8.3403087614E-01  6.6786431989E-01
                       6.6697112171E-01  6.6697112171E-01  6.6697112171E-01
            znucl       79.00000
 
================================================================================


- Timing analysis has been suppressed with timopt=0



================================================================================

 Suggested references for the acknowledgment of ABINIT usage.

 The users of ABINIT have little formal obligations with respect to the ABINIT group
 (those specified in the GNU General Public License, http://www.gnu.org/copyleft/gpl.txt).
 However, it is common practice in the scientific literature,
 to acknowledge the efforts of people that have made the research possible.
 In this spirit, please find below suggested citations of work written by ABINIT developers,
 corresponding to implementations inside of ABINIT that you have used in the present run.
 Note also that it will be of great value to readers of publications presenting these results,
 to read papers enabling them to understand the theoretical formalism and details
 of the ABINIT implementation.
 For information on why they are suggested, see also http://www.abinit.org/about/?text=acknowledgments.

 [1] Large scale ab initio calculations based on three levels of parallelization
 F. Bottin, S. Leroux, A. Knyazev, G. Zerah, Comput. Mat. Science 42, 329, (2008).
 Comment : in case paral_kgb is non-zero. Strong suggestion to cite this paper in your publications.
 This paper is also available at http://www.arxiv.org/abs/0707.3405

 [2] Implementation of the Projector Augmented-Wave Method in the ABINIT code.
 M. Torrent, F. Jollet, F. Bottin, G. Zerah, and X. Gonze Comput. Mat. Science 42, 337, (2008).
 Comment : PAW calculations. Strong suggestion to cite this paper.

 [3] ABINIT : First-principles approach of materials and nanosystem properties.
 X. Gonze, B. Amadon, P.-M. Anglade, J.-M. Beuken, F. Bottin, P. Boulanger, F. Bruneval,
 D. Caliste, R. Caracas, M. Cote, T. Deutsch, L. Genovese, Ph. Ghosez, M. Giantomassi
 S. Goedecker, D.R. Hamann, P. Hermet, F. Jollet, G. Jomard, S. Leroux, M. Mancini, S. Mazevet,
 M.J.T. Oliveira, G. Onida, Y. Pouillon, T. Rangel, G.-M. Rignanese, D. Sangalli, R. Shaltaf,
 M. Torrent, M.J. Verstraete, G. Zerah, J.W. Zwanziger
 Computer Phys. Comm. 180, 2582-2615 (2009).
 Comment : the third generic paper describing the ABINIT project.
 Note that a version of this paper, that is not formatted for Computer Phys. Comm. 
 is available at http://www.abinit.org/about/ABINIT_CPC_v10.pdf .
 The licence allows the authors to put it on the Web.

 [4] A brief introduction to the ABINIT software package.
 X. Gonze, G.-M. Rignanese, M. Verstraete, J.-M. Beuken, Y. Pouillon, R. Caracas, F. Jollet,
 M. Torrent, G. Zerah, M. Mikami, Ph. Ghosez, M. Veithen, J.-Y. Raty, V. Olevano, F. Bruneval,
 L. Reining, R. Godby, G. Onida, D.R. Hamann, and D.C. Allan.
 Z. Kristallogr. 220, 558-562 (2005).
 Comment : the second generic paper describing the ABINIT project. Note that this paper
 should be cited especially if you are using the GW part of ABINIT, as several authors
 of this part are not in the list of authors of the first or third paper.
 The .pdf of the latter paper is available at http://www.abinit.org/about/zfk_0505-06_558-562.pdf.
 Note that it should not redistributed (Copyright by Oldenburg Wissenshaftverlag,
 the licence allows the authors to put it on the Web).


 And optionally :

 [5] First-principles computation of material properties : the ABINIT software project. 
 X. Gonze, J.-M. Beuken, R. Caracas, F. Detraux, M. Fuchs, G.-M. Rignanese, L. Sindic,
 M. Verstraete, G. Zerah, F. Jollet, M. Torrent, A. Roy, M. Mikami, Ph. Ghosez, J.-Y. Raty, D.C. Allan.
 Computational Materials Science 25, 478-492 (2002). http://dx.doi.org/10.1016/S0927-0256(02)00325-7
 Comment : the original paper describing the ABINIT project.
-
- Proc.   0 individual time (sec): cpu=        216.7  wall=        222.5
 
================================================================================
 
 Calculation completed.
.Delivered    0 WARNINGs and   1 COMMENTs to log file.
+Overall time at end (sec) : cpu=      28510.7  wall=      28919.7
