As    ONCVPSP  r_core=  1.70  1.61  1.70
33.0000     15.0000      140815    zatom,zion,pspd
8    11     2     4   601     0    pspcod,pspxc,lmax,lloc,mmax,r2well
6.00000000  0.30000000  0.00000000    rchrg fchrg qchrg
2     2     2     0     0    nproj
0                 extension_switch
0                         7.4245933590653D+00  8.4348216285127D-01
1  0.0000000000000D+00 -0.0000000000000D+00 -0.0000000000000D+00
2  1.0000000000000D-02 -3.3575262523224D-02 -8.8037543004328D-03
3  2.0000000000000D-02 -6.7120483725297D-02 -1.7632915396594D-02
4  3.0000000000000D-02 -1.0060573545771D-01 -2.6512586447305D-02
5  4.0000000000000D-02 -1.3400131496849D-01 -3.5467265214043D-02
6  5.0000000000000D-02 -1.6727785523592D-01 -4.4520546042887D-02
7  6.0000000000000D-02 -2.0040643248546D-01 -5.3694827434227D-02
8  7.0000000000000D-02 -2.3335866998530D-01 -6.3011027013301D-02
9  8.0000000000000D-02 -2.6610683724462D-01 -7.2488305675573D-02
10  9.0000000000000D-02 -2.9862394377531D-01 -8.2143802626700D-02
11  1.0000000000000D-01 -3.3088382661993D-01 -9.1992382978271D-02
12  1.1000000000000D-01 -3.6286123089718D-01 -1.0204639949177D-01
13  1.2000000000000D-01 -3.9453188267333D-01 -1.1231546997799D-01
14  1.3000000000000D-01 -4.2587255352720D-01 -1.2280627177561D-01
15  1.4000000000000D-01 -4.5686111623691D-01 -1.3352235465481D-01
16  1.5000000000000D-01 -4.8747659110629D-01 -1.4446397332879D-01
17  1.6000000000000D-01 -5.1769918248842D-01 -1.5562794076058D-01
18  1.7000000000000D-01 -5.4751030519172D-01 -1.6700750317500D-01
19  1.8000000000000D-01 -5.7689260047968D-01 -1.7859223775897D-01
20  1.9000000000000D-01 -6.0582994152304D-01 -1.9036797366064D-01
21  2.0000000000000D-01 -6.3430742816677D-01 -2.0231673717010D-01
22  2.1000000000000D-01 -6.6231137108488D-01 -2.1441672112148D-01
23  2.2000000000000D-01 -6.8982926532729D-01 -2.2664227944368D-01
24  2.3000000000000D-01 -7.1684975350082D-01 -2.3896394657623D-01
25  2.4000000000000D-01 -7.4336257886361D-01 -2.5134848210792D-01
26  2.5000000000000D-01 -7.6935852853624D-01 -2.6375894043370D-01
27  2.6000000000000D-01 -7.9482936763465D-01 -2.7615476527910D-01
28  2.7000000000000D-01 -8.1976776422144D-01 -2.8849190888797D-01
29  2.8000000000000D-01 -8.4416720649086D-01 -3.0072297498899D-01
30  2.9000000000000D-01 -8.6802191216882D-01 -3.1279738535798D-01
31  3.0000000000000D-01 -8.9132673120477D-01 -3.2466156906955D-01
32  3.1000000000000D-01 -9.1407704252160D-01 -3.3625917358365D-01
33  3.2000000000000D-01 -9.3626864615397D-01 -3.4753129581370D-01
34  3.3000000000000D-01 -9.5789765030590D-01 -3.5841673461869D-01
35  3.4000000000000D-01 -9.7896035580275D-01 -3.6885226107213D-01
36  3.5000000000000D-01 -9.9945314002399D-01 -3.7877290238234D-01
37  3.6000000000000D-01 -1.0193723359089D+00 -3.8811224983310D-01
38  3.7000000000000D-01 -1.0387141150975D+00 -3.9680277248256D-01
39  3.8000000000000D-01 -1.0574743721293D+00 -4.0477614307141D-01
40  3.9000000000000D-01 -1.0756486055570D+00 -4.1196358802440D-01
41  4.0000000000000D-01 -1.0932318096965D+00 -4.1829622972578D-01
42  4.1000000000000D-01 -1.1102183671872D+00 -4.2370544499622D-01
43  4.2000000000000D-01 -1.1266019477293D+00 -4.2812322820497D-01
44  4.3000000000000D-01 -1.1423754138173D+00 -4.3148255768757D-01
45  4.4000000000000D-01 -1.1575307343718D+00 -4.3371776396253D-01
46  4.5000000000000D-01 -1.1720589072883D+00 -4.3476489786297D-01
47  4.6000000000000D-01 -1.1859498919000D+00 -4.3456209660121D-01
48  4.7000000000000D-01 -1.1991925523270D+00 -4.3304994562932D-01
49  4.8000000000000D-01 -1.2117746151658D+00 -4.3017182267304D-01
50  4.9000000000000D-01 -1.2236826292394D+00 -4.2587427697598D-01
51  5.0000000000000D-01 -1.2349019521566D+00 -4.2010734637468D-01
52  5.1000000000000D-01 -1.2454167458492D+00 -4.1282487527624D-01
53  5.2000000000000D-01 -1.2552099819568D+00 -4.0398483953495D-01
54  5.3000000000000D-01 -1.2642634611734D+00 -3.9354968031451D-01
55  5.4000000000000D-01 -1.2725578627998D+00 -3.8148650168680D-01
56  5.5000000000000D-01 -1.2800727844394D+00 -3.6776744433264D-01
57  5.6000000000000D-01 -1.2867868217640D+00 -3.5236983434457D-01
58  5.7000000000000D-01 -1.2926776455249D+00 -3.3527647838163D-01
59  5.8000000000000D-01 -1.2977221041725D+00 -3.1647581397471D-01
60  5.9000000000000D-01 -1.3018963370281D+00 -2.9596215016529D-01
61  6.0000000000000D-01 -1.3051758985012D+00 -2.7373572658501D-01
62  6.1000000000000D-01 -1.3075359126594D+00 -2.4980298966208D-01
63  6.2000000000000D-01 -1.3089512078646D+00 -2.2417652373510D-01
64  6.3000000000000D-01 -1.3093965081038D+00 -1.9687527861640D-01
65  6.4000000000000D-01 -1.3088466048453D+00 -1.6792455616383D-01
66  6.5000000000000D-01 -1.3072765256378D+00 -1.3735598458332D-01
67  6.6000000000000D-01 -1.3046617742050D+00 -1.0520762013686D-01
68  6.7000000000000D-01 -1.3009785213311D+00 -7.1523854491241D-02
69  6.8000000000000D-01 -1.2962038112064D+00 -3.6355342211946D-02
70  6.9000000000000D-01 -1.2903157625864D+00  2.4109500112731D-04
71  7.0000000000000D-01 -1.2832938759590D+00  3.8202505169703D-02
72  7.1000000000000D-01 -1.2751191896572D+00  7.7460033800013D-02
73  7.2000000000000D-01 -1.2657745286311D+00  1.1793906959713D-01
74  7.3000000000000D-01 -1.2552447360239D+00  1.5955943959188D-01
75  7.4000000000000D-01 -1.2435168837769D+00  2.0223563212529D-01
76  7.5000000000000D-01 -1.2305805388267D+00  2.4587703724565D-01
77  7.6000000000000D-01 -1.2164279696499D+00  2.9038822909520D-01
78  7.7000000000000D-01 -1.2010543340893D+00  3.3566925860445D-01
79  7.8000000000000D-01 -1.1844578950785D+00  3.8161596700113D-01
80  7.9000000000000D-01 -1.1666402130062D+00  4.2812032169588D-01
81  8.0000000000000D-01 -1.1476063256881D+00  4.7507077117103D-01
82  8.1000000000000D-01 -1.1273649142939D+00  5.2235261738762D-01
83  8.2000000000000D-01 -1.1059284536378D+00  5.6984840416348D-01
84  8.3000000000000D-01 -1.0833133453105D+00  6.1743831991778D-01
85  8.4000000000000D-01 -1.0595400322114D+00  6.6500061312928D-01
86  8.5000000000000D-01 -1.0346330931279D+00  7.1241201881040D-01
87  8.6000000000000D-01 -1.0086213161032D+00  7.5954819425965D-01
88  8.7000000000000D-01 -9.8153774944177D-01  8.0628416231743D-01
89  8.8000000000000D-01 -9.5341972931582D-01  8.5249476031340D-01
90  8.9000000000000D-01 -9.2430888305961D-01  8.9805509285834D-01
91  9.0000000000000D-01 -8.9425110737959D-01  9.4284098659789D-01
92  9.1000000000000D-01 -8.6329652085979D-01  9.8672944501078D-01
93  9.2000000000000D-01 -8.3149939031401D-01  1.0295991013012D+00
94  9.3000000000000D-01 -7.9891803072848D-01  1.0713306674057D+00
95  9.4000000000000D-01 -7.6561467875482D-01  1.1118073771148D+00
96  9.5000000000000D-01 -7.3165533995477D-01  1.1509154212978D+00
97  9.6000000000000D-01 -6.9710959630272D-01  1.1885442062090D+00
98  9.7000000000000D-01 -6.6205046093318D-01  1.2245872063003D+00
99  9.8000000000000D-01 -6.2655408454402D-01  1.2589420542145D+00
100  9.9000000000000D-01 -5.9069951359692D-01  1.2915109500058D+00
101  1.0000000000000D+00 -5.5456841718076D-01  1.3222010669547D+00
102  1.0100000000000D+00 -5.1824478817903D-01  1.3509249044412D+00
103  1.0200000000000D+00 -4.8181463389748D-01  1.3776005778429D+00
104  1.0300000000000D+00 -4.4536572134873D-01  1.4021518682971D+00
105  1.0400000000000D+00 -4.0898697843165D-01  1.4245096001372D+00
106  1.0500000000000D+00 -3.7276830531914D-01  1.4446108204656D+00
107  1.0600000000000D+00 -3.3680014492378D-01  1.4623993791080D+00
108  1.0700000000000D+00 -3.0117310162552D-01  1.4778261252861D+00
109  1.0800000000000D+00 -2.6597783248541D-01  1.4908485658333D+00
110  1.0900000000000D+00 -2.3130375657037D-01  1.5014328800373D+00
111  1.1000000000000D+00 -1.9723938761134D-01  1.5095522596278D+00
112  1.1100000000000D+00 -1.6387172544774D-01  1.5151875480229D+00
113  1.1200000000000D+00 -1.3128626480166D-01  1.5183267974908D+00
114  1.1300000000000D+00 -9.9565533297284D-02  1.5189668593766D+00
115  1.1400000000000D+00 -6.8789189943628D-02  1.5171124339976D+00
116  1.1500000000000D+00 -3.9033877070671D-02  1.5127758380772D+00
117  1.1600000000000D+00 -1.0373455029491D-02  1.5059765335485D+00
118  1.1700000000000D+00  1.7123588005578D-02  1.4967432626357D+00
119  1.1800000000000D+00  4.3392795868834D-02  1.4851120389865D+00
120  1.1900000000000D+00  6.8373832730405D-02  1.4711260501581D+00
121  1.2000000000000D+00  9.2011300482241D-02  1.4548360944809D+00
122  1.2100000000000D+00  1.1425659645601D-01  1.4363012429093D+00
123  1.2200000000000D+00  1.3506589319510D-01  1.4155870397577D+00
124  1.2300000000000D+00  1.5439983259308D-01  1.3927653996561D+00
125  1.2400000000000D+00  1.7222816539899D-01  1.3679164606416D+00
126  1.2500000000000D+00  1.8852561071530D-01  1.3411259549122D+00
127  1.2600000000000D+00  2.0327172839830D-01  1.3124853763643D+00
128  1.2700000000000D+00  2.1645584479982D-01  1.2820931273262D+00
129  1.2800000000000D+00  2.2807280218616D-01  1.2500525139600D+00
130  1.2900000000000D+00  2.3812226638099D-01  1.2164719061645D+00
131  1.3000000000000D+00  2.4661435066008D-01  1.1814649491079D+00
132  1.3100000000000D+00  2.5356412828650D-01  1.1451492346254D+00
133  1.3200000000000D+00  2.5899215694346D-01  1.1076467719037D+00
134  1.3300000000000D+00  2.6292896465675D-01  1.0690826504354D+00
135  1.3400000000000D+00  2.6540909002171D-01  1.0295853231285D+00
136  1.3500000000000D+00  2.6647399633770D-01  9.8928622413132D-01
137  1.3600000000000D+00  2.6617280448118D-01  9.4831786716542D-01
138  1.3700000000000D+00  2.6455823388442D-01  9.0681606476967D-01
139  1.3800000000000D+00  2.6169093607063D-01  8.6491637891174D-01
140  1.3900000000000D+00  2.5763597452748D-01  8.2275518417103D-01
141  1.4000000000000D+00  2.5246293430146D-01  7.8047095967528D-01
142  1.4100000000000D+00  2.4624751775390D-01  7.3819827836068D-01
143  1.4200000000000D+00  2.3906822981234D-01  6.9607467999890D-01
144  1.4300000000000D+00  2.3100847631009D-01  6.5423350264595D-01
145  1.4400000000000D+00  2.2215432885033D-01  6.1280668238674D-01
146  1.4500000000000D+00  2.1259533822157D-01  5.7192625469732D-01
147  1.4600000000000D+00  2.0242257361983D-01  5.3171584473131D-01
148  1.4700000000000D+00  1.9173029525538D-01  4.9230312187087D-01
149  1.4800000000000D+00  1.8061240060270D-01  4.5380368634810D-01
150  1.4900000000000D+00  1.6916487937789D-01  4.1633479425878D-01
151  1.5000000000000D+00  1.5748338139559D-01  3.8000571680396D-01
152  1.5100000000000D+00  1.4566238611467D-01  3.4491960918099D-01
153  1.5200000000000D+00  1.3379783783900D-01  3.1117796233364D-01
154  1.5300000000000D+00  1.2197963715821D-01  2.7886755213663D-01
155  1.5400000000000D+00  1.1030235596690D-01  2.4808034176337D-01
156  1.5500000000000D+00  9.8849165644919D-02  2.1888595660036D-01
157  1.5600000000000D+00  8.7709335258947D-02  1.9136168876114D-01
158  1.5700000000000D+00  7.6959225251287D-02  1.6556213689879D-01
159  1.5800000000000D+00  6.6678897705893D-02  1.4154565265945D-01
160  1.5900000000000D+00  5.6936925403898D-02  1.1935160889538D-01
161  1.6000000000000D+00  4.7801541987577D-02  9.9017492493595D-02
162  1.6100000000000D+00  3.9331664248887D-02  8.0565390893098D-02
163  1.6200000000000D+00  3.1582078371401D-02  6.4012803980329D-02
164  1.6300000000000D+00  2.4601047336983D-02  4.9367725300799D-02
165  1.6400000000000D+00  1.8429358081398D-02  3.6632135507249D-02
166  1.6500000000000D+00  1.3103822620378D-02  2.5803427950813D-02
167  1.6600000000000D+00  8.6507548474424D-03  1.6870101104687D-02
168  1.6700000000000D+00  5.0940060055466D-03  9.8174767647021D-03
169  1.6800000000000D+00  2.4449842598436D-03  4.6205099261210D-03
170  1.6900000000000D+00  7.8761744129926D-04  1.3869788615282D-03
171  1.7000000000000D+00 -2.8771709840075D-05 -1.8985176256181D-04
172  1.7100000000000D+00 -2.4390273017449D-04 -5.6136703976865D-04
173  1.7200000000000D+00 -1.0294427917181D-04 -2.2424521508160D-04
174  1.7300000000000D+00  1.0584371953271D-05  2.7803396781408D-05
175  1.7400000000000D+00  7.2168159241158D-06  1.8957383349945D-05
176  1.7500000000000D+00  0.0000000000000D+00  0.0000000000000D+00
177  1.7600000000000D+00  0.0000000000000D+00  0.0000000000000D+00
178  1.7700000000000D+00  0.0000000000000D+00  0.0000000000000D+00
179  1.7800000000000D+00  0.0000000000000D+00  0.0000000000000D+00
180  1.7900000000000D+00  0.0000000000000D+00  0.0000000000000D+00
181  1.8000000000000D+00  0.0000000000000D+00  0.0000000000000D+00
182  1.8100000000000D+00  0.0000000000000D+00  0.0000000000000D+00
183  1.8200000000000D+00  0.0000000000000D+00  0.0000000000000D+00
184  1.8300000000000D+00  0.0000000000000D+00  0.0000000000000D+00
185  1.8400000000000D+00  0.0000000000000D+00  0.0000000000000D+00
186  1.8500000000000D+00  0.0000000000000D+00  0.0000000000000D+00
187  1.8600000000000D+00  0.0000000000000D+00  0.0000000000000D+00
188  1.8700000000000D+00  0.0000000000000D+00  0.0000000000000D+00
189  1.8800000000000D+00  0.0000000000000D+00  0.0000000000000D+00
190  1.8900000000000D+00  0.0000000000000D+00  0.0000000000000D+00
191  1.9000000000000D+00  0.0000000000000D+00  0.0000000000000D+00
192  1.9100000000000D+00  0.0000000000000D+00  0.0000000000000D+00
193  1.9200000000000D+00  0.0000000000000D+00  0.0000000000000D+00
194  1.9300000000000D+00  0.0000000000000D+00  0.0000000000000D+00
195  1.9400000000000D+00  0.0000000000000D+00  0.0000000000000D+00
196  1.9500000000000D+00  0.0000000000000D+00  0.0000000000000D+00
197  1.9600000000000D+00  0.0000000000000D+00  0.0000000000000D+00
198  1.9700000000000D+00  0.0000000000000D+00  0.0000000000000D+00
199  1.9800000000000D+00  0.0000000000000D+00  0.0000000000000D+00
200  1.9900000000000D+00  0.0000000000000D+00  0.0000000000000D+00
201  2.0000000000000D+00  0.0000000000000D+00  0.0000000000000D+00
202  2.0100000000000D+00  0.0000000000000D+00  0.0000000000000D+00
203  2.0200000000000D+00  0.0000000000000D+00  0.0000000000000D+00
204  2.0300000000000D+00  0.0000000000000D+00  0.0000000000000D+00
205  2.0400000000000D+00  0.0000000000000D+00  0.0000000000000D+00
206  2.0500000000000D+00  0.0000000000000D+00  0.0000000000000D+00
207  2.0600000000000D+00  0.0000000000000D+00  0.0000000000000D+00
208  2.0700000000000D+00  0.0000000000000D+00  0.0000000000000D+00
209  2.0800000000000D+00  0.0000000000000D+00  0.0000000000000D+00
210  2.0900000000000D+00  0.0000000000000D+00  0.0000000000000D+00
211  2.1000000000000D+00  0.0000000000000D+00  0.0000000000000D+00
212  2.1100000000000D+00  0.0000000000000D+00  0.0000000000000D+00
213  2.1200000000000D+00  0.0000000000000D+00  0.0000000000000D+00
214  2.1300000000000D+00  0.0000000000000D+00  0.0000000000000D+00
215  2.1400000000000D+00  0.0000000000000D+00  0.0000000000000D+00
216  2.1500000000000D+00  0.0000000000000D+00  0.0000000000000D+00
217  2.1600000000000D+00  0.0000000000000D+00  0.0000000000000D+00
218  2.1700000000000D+00  0.0000000000000D+00  0.0000000000000D+00
219  2.1800000000000D+00  0.0000000000000D+00  0.0000000000000D+00
220  2.1900000000000D+00  0.0000000000000D+00  0.0000000000000D+00
221  2.2000000000000D+00  0.0000000000000D+00  0.0000000000000D+00
222  2.2100000000000D+00  0.0000000000000D+00  0.0000000000000D+00
223  2.2200000000000D+00  0.0000000000000D+00  0.0000000000000D+00
224  2.2300000000000D+00  0.0000000000000D+00  0.0000000000000D+00
225  2.2400000000000D+00  0.0000000000000D+00  0.0000000000000D+00
226  2.2500000000000D+00  0.0000000000000D+00  0.0000000000000D+00
227  2.2600000000000D+00  0.0000000000000D+00  0.0000000000000D+00
228  2.2700000000000D+00  0.0000000000000D+00  0.0000000000000D+00
229  2.2800000000000D+00  0.0000000000000D+00  0.0000000000000D+00
230  2.2900000000000D+00  0.0000000000000D+00  0.0000000000000D+00
231  2.3000000000000D+00  0.0000000000000D+00  0.0000000000000D+00
232  2.3100000000000D+00  0.0000000000000D+00  0.0000000000000D+00
233  2.3200000000000D+00  0.0000000000000D+00  0.0000000000000D+00
234  2.3300000000000D+00  0.0000000000000D+00  0.0000000000000D+00
235  2.3400000000000D+00  0.0000000000000D+00  0.0000000000000D+00
236  2.3500000000000D+00  0.0000000000000D+00  0.0000000000000D+00
237  2.3600000000000D+00  0.0000000000000D+00  0.0000000000000D+00
238  2.3700000000000D+00  0.0000000000000D+00  0.0000000000000D+00
239  2.3800000000000D+00  0.0000000000000D+00  0.0000000000000D+00
240  2.3900000000000D+00  0.0000000000000D+00  0.0000000000000D+00
241  2.4000000000000D+00  0.0000000000000D+00  0.0000000000000D+00
242  2.4100000000000D+00  0.0000000000000D+00  0.0000000000000D+00
243  2.4200000000000D+00  0.0000000000000D+00  0.0000000000000D+00
244  2.4300000000000D+00  0.0000000000000D+00  0.0000000000000D+00
245  2.4400000000000D+00  0.0000000000000D+00  0.0000000000000D+00
246  2.4500000000000D+00  0.0000000000000D+00  0.0000000000000D+00
247  2.4600000000000D+00  0.0000000000000D+00  0.0000000000000D+00
248  2.4700000000000D+00  0.0000000000000D+00  0.0000000000000D+00
249  2.4800000000000D+00  0.0000000000000D+00  0.0000000000000D+00
250  2.4900000000000D+00  0.0000000000000D+00  0.0000000000000D+00
251  2.5000000000000D+00  0.0000000000000D+00  0.0000000000000D+00
252  2.5100000000000D+00  0.0000000000000D+00  0.0000000000000D+00
253  2.5200000000000D+00  0.0000000000000D+00  0.0000000000000D+00
254  2.5300000000000D+00  0.0000000000000D+00  0.0000000000000D+00
255  2.5400000000000D+00  0.0000000000000D+00  0.0000000000000D+00
256  2.5500000000000D+00  0.0000000000000D+00  0.0000000000000D+00
257  2.5600000000000D+00  0.0000000000000D+00  0.0000000000000D+00
258  2.5700000000000D+00  0.0000000000000D+00  0.0000000000000D+00
259  2.5800000000000D+00  0.0000000000000D+00  0.0000000000000D+00
260  2.5900000000000D+00  0.0000000000000D+00  0.0000000000000D+00
261  2.6000000000000D+00  0.0000000000000D+00  0.0000000000000D+00
262  2.6100000000000D+00  0.0000000000000D+00  0.0000000000000D+00
263  2.6200000000000D+00  0.0000000000000D+00  0.0000000000000D+00
264  2.6300000000000D+00  0.0000000000000D+00  0.0000000000000D+00
265  2.6400000000000D+00  0.0000000000000D+00  0.0000000000000D+00
266  2.6500000000000D+00  0.0000000000000D+00  0.0000000000000D+00
267  2.6600000000000D+00  0.0000000000000D+00  0.0000000000000D+00
268  2.6700000000000D+00  0.0000000000000D+00  0.0000000000000D+00
269  2.6800000000000D+00  0.0000000000000D+00  0.0000000000000D+00
270  2.6900000000000D+00  0.0000000000000D+00  0.0000000000000D+00
271  2.7000000000000D+00  0.0000000000000D+00  0.0000000000000D+00
272  2.7100000000000D+00  0.0000000000000D+00  0.0000000000000D+00
273  2.7200000000000D+00  0.0000000000000D+00  0.0000000000000D+00
274  2.7300000000000D+00  0.0000000000000D+00  0.0000000000000D+00
275  2.7400000000000D+00  0.0000000000000D+00  0.0000000000000D+00
276  2.7500000000000D+00  0.0000000000000D+00  0.0000000000000D+00
277  2.7600000000000D+00  0.0000000000000D+00  0.0000000000000D+00
278  2.7700000000000D+00  0.0000000000000D+00  0.0000000000000D+00
279  2.7800000000000D+00  0.0000000000000D+00  0.0000000000000D+00
280  2.7900000000000D+00  0.0000000000000D+00  0.0000000000000D+00
281  2.8000000000000D+00  0.0000000000000D+00  0.0000000000000D+00
282  2.8100000000000D+00  0.0000000000000D+00  0.0000000000000D+00
283  2.8200000000000D+00  0.0000000000000D+00  0.0000000000000D+00
284  2.8300000000000D+00  0.0000000000000D+00  0.0000000000000D+00
285  2.8400000000000D+00  0.0000000000000D+00  0.0000000000000D+00
286  2.8500000000000D+00  0.0000000000000D+00  0.0000000000000D+00
287  2.8600000000000D+00  0.0000000000000D+00  0.0000000000000D+00
288  2.8700000000000D+00  0.0000000000000D+00  0.0000000000000D+00
289  2.8800000000000D+00  0.0000000000000D+00  0.0000000000000D+00
290  2.8900000000000D+00  0.0000000000000D+00  0.0000000000000D+00
291  2.9000000000000D+00  0.0000000000000D+00  0.0000000000000D+00
292  2.9100000000000D+00  0.0000000000000D+00  0.0000000000000D+00
293  2.9200000000000D+00  0.0000000000000D+00  0.0000000000000D+00
294  2.9300000000000D+00  0.0000000000000D+00  0.0000000000000D+00
295  2.9400000000000D+00  0.0000000000000D+00  0.0000000000000D+00
296  2.9500000000000D+00  0.0000000000000D+00  0.0000000000000D+00
297  2.9600000000000D+00  0.0000000000000D+00  0.0000000000000D+00
298  2.9700000000000D+00  0.0000000000000D+00  0.0000000000000D+00
299  2.9800000000000D+00  0.0000000000000D+00  0.0000000000000D+00
300  2.9900000000000D+00  0.0000000000000D+00  0.0000000000000D+00
301  3.0000000000000D+00  0.0000000000000D+00  0.0000000000000D+00
302  3.0100000000000D+00  0.0000000000000D+00  0.0000000000000D+00
303  3.0200000000000D+00  0.0000000000000D+00  0.0000000000000D+00
304  3.0300000000000D+00  0.0000000000000D+00  0.0000000000000D+00
305  3.0400000000000D+00  0.0000000000000D+00  0.0000000000000D+00
306  3.0500000000000D+00  0.0000000000000D+00  0.0000000000000D+00
307  3.0600000000000D+00  0.0000000000000D+00  0.0000000000000D+00
308  3.0700000000000D+00  0.0000000000000D+00  0.0000000000000D+00
309  3.0800000000000D+00  0.0000000000000D+00  0.0000000000000D+00
310  3.0900000000000D+00  0.0000000000000D+00  0.0000000000000D+00
311  3.1000000000000D+00  0.0000000000000D+00  0.0000000000000D+00
312  3.1100000000000D+00  0.0000000000000D+00  0.0000000000000D+00
313  3.1200000000000D+00  0.0000000000000D+00  0.0000000000000D+00
314  3.1300000000000D+00  0.0000000000000D+00  0.0000000000000D+00
315  3.1400000000000D+00  0.0000000000000D+00  0.0000000000000D+00
316  3.1500000000000D+00  0.0000000000000D+00  0.0000000000000D+00
317  3.1600000000000D+00  0.0000000000000D+00  0.0000000000000D+00
318  3.1700000000000D+00  0.0000000000000D+00  0.0000000000000D+00
319  3.1800000000000D+00  0.0000000000000D+00  0.0000000000000D+00
320  3.1900000000000D+00  0.0000000000000D+00  0.0000000000000D+00
321  3.2000000000000D+00  0.0000000000000D+00  0.0000000000000D+00
322  3.2100000000000D+00  0.0000000000000D+00  0.0000000000000D+00
323  3.2200000000000D+00  0.0000000000000D+00  0.0000000000000D+00
324  3.2300000000000D+00  0.0000000000000D+00  0.0000000000000D+00
325  3.2400000000000D+00  0.0000000000000D+00  0.0000000000000D+00
326  3.2500000000000D+00  0.0000000000000D+00  0.0000000000000D+00
327  3.2600000000000D+00  0.0000000000000D+00  0.0000000000000D+00
328  3.2700000000000D+00  0.0000000000000D+00  0.0000000000000D+00
329  3.2800000000000D+00  0.0000000000000D+00  0.0000000000000D+00
330  3.2900000000000D+00  0.0000000000000D+00  0.0000000000000D+00
331  3.3000000000000D+00  0.0000000000000D+00  0.0000000000000D+00
332  3.3100000000000D+00  0.0000000000000D+00  0.0000000000000D+00
333  3.3200000000000D+00  0.0000000000000D+00  0.0000000000000D+00
334  3.3300000000000D+00  0.0000000000000D+00  0.0000000000000D+00
335  3.3400000000000D+00  0.0000000000000D+00  0.0000000000000D+00
336  3.3500000000000D+00  0.0000000000000D+00  0.0000000000000D+00
337  3.3600000000000D+00  0.0000000000000D+00  0.0000000000000D+00
338  3.3700000000000D+00  0.0000000000000D+00  0.0000000000000D+00
339  3.3800000000000D+00  0.0000000000000D+00  0.0000000000000D+00
340  3.3900000000000D+00  0.0000000000000D+00  0.0000000000000D+00
341  3.4000000000000D+00  0.0000000000000D+00  0.0000000000000D+00
342  3.4100000000000D+00  0.0000000000000D+00  0.0000000000000D+00
343  3.4200000000000D+00  0.0000000000000D+00  0.0000000000000D+00
344  3.4300000000000D+00  0.0000000000000D+00  0.0000000000000D+00
345  3.4400000000000D+00  0.0000000000000D+00  0.0000000000000D+00
346  3.4500000000000D+00  0.0000000000000D+00  0.0000000000000D+00
347  3.4600000000000D+00  0.0000000000000D+00  0.0000000000000D+00
348  3.4700000000000D+00  0.0000000000000D+00  0.0000000000000D+00
349  3.4800000000000D+00  0.0000000000000D+00  0.0000000000000D+00
350  3.4900000000000D+00  0.0000000000000D+00  0.0000000000000D+00
351  3.5000000000000D+00  0.0000000000000D+00  0.0000000000000D+00
352  3.5100000000000D+00  0.0000000000000D+00  0.0000000000000D+00
353  3.5200000000000D+00  0.0000000000000D+00  0.0000000000000D+00
354  3.5300000000000D+00  0.0000000000000D+00  0.0000000000000D+00
355  3.5400000000000D+00  0.0000000000000D+00  0.0000000000000D+00
356  3.5500000000000D+00  0.0000000000000D+00  0.0000000000000D+00
357  3.5600000000000D+00  0.0000000000000D+00  0.0000000000000D+00
358  3.5700000000000D+00  0.0000000000000D+00  0.0000000000000D+00
359  3.5800000000000D+00  0.0000000000000D+00  0.0000000000000D+00
360  3.5900000000000D+00  0.0000000000000D+00  0.0000000000000D+00
361  3.6000000000000D+00  0.0000000000000D+00  0.0000000000000D+00
362  3.6100000000000D+00  0.0000000000000D+00  0.0000000000000D+00
363  3.6200000000000D+00  0.0000000000000D+00  0.0000000000000D+00
364  3.6300000000000D+00  0.0000000000000D+00  0.0000000000000D+00
365  3.6400000000000D+00  0.0000000000000D+00  0.0000000000000D+00
366  3.6500000000000D+00  0.0000000000000D+00  0.0000000000000D+00
367  3.6600000000000D+00  0.0000000000000D+00  0.0000000000000D+00
368  3.6700000000000D+00  0.0000000000000D+00  0.0000000000000D+00
369  3.6800000000000D+00  0.0000000000000D+00  0.0000000000000D+00
370  3.6900000000000D+00  0.0000000000000D+00  0.0000000000000D+00
371  3.7000000000000D+00  0.0000000000000D+00  0.0000000000000D+00
372  3.7100000000000D+00  0.0000000000000D+00  0.0000000000000D+00
373  3.7200000000000D+00  0.0000000000000D+00  0.0000000000000D+00
374  3.7300000000000D+00  0.0000000000000D+00  0.0000000000000D+00
375  3.7400000000000D+00  0.0000000000000D+00  0.0000000000000D+00
376  3.7500000000000D+00  0.0000000000000D+00  0.0000000000000D+00
377  3.7600000000000D+00  0.0000000000000D+00  0.0000000000000D+00
378  3.7700000000000D+00  0.0000000000000D+00  0.0000000000000D+00
379  3.7800000000000D+00  0.0000000000000D+00  0.0000000000000D+00
380  3.7900000000000D+00  0.0000000000000D+00  0.0000000000000D+00
381  3.8000000000000D+00  0.0000000000000D+00  0.0000000000000D+00
382  3.8100000000000D+00  0.0000000000000D+00  0.0000000000000D+00
383  3.8200000000000D+00  0.0000000000000D+00  0.0000000000000D+00
384  3.8300000000000D+00  0.0000000000000D+00  0.0000000000000D+00
385  3.8400000000000D+00  0.0000000000000D+00  0.0000000000000D+00
386  3.8500000000000D+00  0.0000000000000D+00  0.0000000000000D+00
387  3.8600000000000D+00  0.0000000000000D+00  0.0000000000000D+00
388  3.8700000000000D+00  0.0000000000000D+00  0.0000000000000D+00
389  3.8800000000000D+00  0.0000000000000D+00  0.0000000000000D+00
390  3.8900000000000D+00  0.0000000000000D+00  0.0000000000000D+00
391  3.9000000000000D+00  0.0000000000000D+00  0.0000000000000D+00
392  3.9100000000000D+00  0.0000000000000D+00  0.0000000000000D+00
393  3.9200000000000D+00  0.0000000000000D+00  0.0000000000000D+00
394  3.9300000000000D+00  0.0000000000000D+00  0.0000000000000D+00
395  3.9400000000000D+00  0.0000000000000D+00  0.0000000000000D+00
396  3.9500000000000D+00  0.0000000000000D+00  0.0000000000000D+00
397  3.9600000000000D+00  0.0000000000000D+00  0.0000000000000D+00
398  3.9700000000000D+00  0.0000000000000D+00  0.0000000000000D+00
399  3.9800000000000D+00  0.0000000000000D+00  0.0000000000000D+00
400  3.9900000000000D+00  0.0000000000000D+00  0.0000000000000D+00
401  4.0000000000000D+00  0.0000000000000D+00  0.0000000000000D+00
402  4.0100000000000D+00  0.0000000000000D+00  0.0000000000000D+00
403  4.0200000000000D+00  0.0000000000000D+00  0.0000000000000D+00
404  4.0300000000000D+00  0.0000000000000D+00  0.0000000000000D+00
405  4.0400000000000D+00  0.0000000000000D+00  0.0000000000000D+00
406  4.0500000000000D+00  0.0000000000000D+00  0.0000000000000D+00
407  4.0600000000000D+00  0.0000000000000D+00  0.0000000000000D+00
408  4.0700000000000D+00  0.0000000000000D+00  0.0000000000000D+00
409  4.0800000000000D+00  0.0000000000000D+00  0.0000000000000D+00
410  4.0900000000000D+00  0.0000000000000D+00  0.0000000000000D+00
411  4.1000000000000D+00  0.0000000000000D+00  0.0000000000000D+00
412  4.1100000000000D+00  0.0000000000000D+00  0.0000000000000D+00
413  4.1200000000000D+00  0.0000000000000D+00  0.0000000000000D+00
414  4.1300000000000D+00  0.0000000000000D+00  0.0000000000000D+00
415  4.1400000000000D+00  0.0000000000000D+00  0.0000000000000D+00
416  4.1500000000000D+00  0.0000000000000D+00  0.0000000000000D+00
417  4.1600000000000D+00  0.0000000000000D+00  0.0000000000000D+00
418  4.1700000000000D+00  0.0000000000000D+00  0.0000000000000D+00
419  4.1800000000000D+00  0.0000000000000D+00  0.0000000000000D+00
420  4.1900000000000D+00  0.0000000000000D+00  0.0000000000000D+00
421  4.2000000000000D+00  0.0000000000000D+00  0.0000000000000D+00
422  4.2100000000000D+00  0.0000000000000D+00  0.0000000000000D+00
423  4.2200000000000D+00  0.0000000000000D+00  0.0000000000000D+00
424  4.2300000000000D+00  0.0000000000000D+00  0.0000000000000D+00
425  4.2400000000000D+00  0.0000000000000D+00  0.0000000000000D+00
426  4.2500000000000D+00  0.0000000000000D+00  0.0000000000000D+00
427  4.2600000000000D+00  0.0000000000000D+00  0.0000000000000D+00
428  4.2700000000000D+00  0.0000000000000D+00  0.0000000000000D+00
429  4.2800000000000D+00  0.0000000000000D+00  0.0000000000000D+00
430  4.2900000000000D+00  0.0000000000000D+00  0.0000000000000D+00
431  4.3000000000000D+00  0.0000000000000D+00  0.0000000000000D+00
432  4.3100000000000D+00  0.0000000000000D+00  0.0000000000000D+00
433  4.3200000000000D+00  0.0000000000000D+00  0.0000000000000D+00
434  4.3300000000000D+00  0.0000000000000D+00  0.0000000000000D+00
435  4.3400000000000D+00  0.0000000000000D+00  0.0000000000000D+00
436  4.3500000000000D+00  0.0000000000000D+00  0.0000000000000D+00
437  4.3600000000000D+00  0.0000000000000D+00  0.0000000000000D+00
438  4.3700000000000D+00  0.0000000000000D+00  0.0000000000000D+00
439  4.3800000000000D+00  0.0000000000000D+00  0.0000000000000D+00
440  4.3900000000000D+00  0.0000000000000D+00  0.0000000000000D+00
441  4.4000000000000D+00  0.0000000000000D+00  0.0000000000000D+00
442  4.4100000000000D+00  0.0000000000000D+00  0.0000000000000D+00
443  4.4200000000000D+00  0.0000000000000D+00  0.0000000000000D+00
444  4.4300000000000D+00  0.0000000000000D+00  0.0000000000000D+00