
.Version 8.0.6 of ABINIT 
.(MPI version, prepared for a x86_64_darwin15.4.0_gnu5.3 computer) 

.Copyright (C) 1998-2016 ABINIT group . 
 ABINIT comes with ABSOLUTELY NO WARRANTY.
 It is free software, and you are welcome to redistribute it
 under certain conditions (GNU General Public License,
 see ~abinit/COPYING or http://www.gnu.org/copyleft/gpl.txt).

 ABINIT is a project of the Universite Catholique de Louvain,
 Corning Inc. and other collaborators, see ~abinit/doc/developers/contributors.txt .
 Please read ~abinit/doc/users/acknowledgments.html for suggested
 acknowledgments of the ABINIT effort.
 For more information, see http://www.abinit.org .

.Starting date : Mon  1 Aug 2016.
- ( at 21h09 )
  
- input  file    -> run.abi
- output file    -> run.abo
- root for input  files -> in
- root for output files -> out


 DATASET    1 : space group Fd -3 m (#227); Bravais cF (face-center cubic)
================================================================================
 Values of the parameters that define the memory need for DATASET  1.
     intxc =       0    ionmov =       0      iscf =       7    lmnmax =       2
     lnmax =       2     mgfft =      18  mpssoang =       3    mqgrid =    3001
     natom =       2  nloc_mem =       1    nspden =       1   nspinor =       1
    nsppol =       1      nsym =      48    n1xccc =    2501    ntypat =       1
    occopt =       1   xclevel =       1
-    mband =           8        mffmem =           1         mkmem =          29
       mpw =         202          nfft =        5832          nkpt =          29
================================================================================
P This job should need less than                       3.045 Mbytes of memory.
  Rough estimation (10% accuracy) of disk space for files :
_ WF disk file :      0.717 Mbytes ; DEN or POT disk file :      0.046 Mbytes.
================================================================================


 DATASET    2 : space group Fd -3 m (#227); Bravais cF (face-center cubic)
================================================================================
 Values of the parameters that define the memory need for DATASET  2.
     intxc =       0    ionmov =       0      iscf =      -2    lmnmax =       2
     lnmax =       2     mgfft =      18  mpssoang =       3    mqgrid =    3001
     natom =       2  nloc_mem =       1    nspden =       1   nspinor =       1
    nsppol =       1      nsym =      48    n1xccc =    2501    ntypat =       1
    occopt =       1   xclevel =       1
-    mband =           8        mffmem =           1         mkmem =          14
       mpw =         198          nfft =        5832          nkpt =          14
================================================================================
P This job should need less than                       1.901 Mbytes of memory.
  Rough estimation (10% accuracy) of disk space for files :
_ WF disk file :      0.340 Mbytes ; DEN or POT disk file :      0.046 Mbytes.
================================================================================

--------------------------------------------------------------------------------
------------- Echo of variables that govern the present computation ------------
--------------------------------------------------------------------------------
-
- outvars: echo of selected default values                                      
-   iomode0 =  0 , fftalg0 =112 , wfoptalg0 =  0
-
- outvars: echo of global parameters not present in the input file              
-  max_nthreads =    0
-
 -outvars: echo values of preprocessed input variables --------
-          iomode           3
            acell      1.0000000000E+00  1.0000000000E+00  1.0000000000E+00 Bohr
              amu      2.80855000E+01
             ecut      6.00000000E+00 Hartree
-          fftalg         112
           getden1          0
           getden2         -1
             iscf1          7
             iscf2         -2
           istwfk1       1    0    0    0    1    0    0    0    0    0
                         0    0    0    0    0    0    0    0    0    0
                         1    0    0    0    0    0    0    0    0
           istwfk2       1    0    0    0    0    0    1    0    0    0
                         0    0    0    1
           jdtset        1    2
              kpt1     0.00000000E+00  0.00000000E+00  0.00000000E+00
                       1.25000000E-01  0.00000000E+00  0.00000000E+00
                       2.50000000E-01  0.00000000E+00  0.00000000E+00
                       3.75000000E-01  0.00000000E+00  0.00000000E+00
                       5.00000000E-01  0.00000000E+00  0.00000000E+00
                       1.25000000E-01  1.25000000E-01  0.00000000E+00
                       2.50000000E-01  1.25000000E-01  0.00000000E+00
                       3.75000000E-01  1.25000000E-01  0.00000000E+00
                       5.00000000E-01  1.25000000E-01  0.00000000E+00
                      -3.75000000E-01  1.25000000E-01  0.00000000E+00
                      -2.50000000E-01  1.25000000E-01  0.00000000E+00
                      -1.25000000E-01  1.25000000E-01  0.00000000E+00
                       2.50000000E-01  2.50000000E-01  0.00000000E+00
                       3.75000000E-01  2.50000000E-01  0.00000000E+00
                       5.00000000E-01  2.50000000E-01  0.00000000E+00
                      -3.75000000E-01  2.50000000E-01  0.00000000E+00
                      -2.50000000E-01  2.50000000E-01  0.00000000E+00
                       3.75000000E-01  3.75000000E-01  0.00000000E+00
                       5.00000000E-01  3.75000000E-01  0.00000000E+00
                      -3.75000000E-01  3.75000000E-01  0.00000000E+00
                       5.00000000E-01  5.00000000E-01  0.00000000E+00
                       3.75000000E-01  2.50000000E-01  1.25000000E-01
                       5.00000000E-01  2.50000000E-01  1.25000000E-01
                      -3.75000000E-01  2.50000000E-01  1.25000000E-01
                       5.00000000E-01  3.75000000E-01  1.25000000E-01
                      -3.75000000E-01  3.75000000E-01  1.25000000E-01
                      -2.50000000E-01  3.75000000E-01  1.25000000E-01
                      -3.75000000E-01  5.00000000E-01  1.25000000E-01
                      -2.50000000E-01  5.00000000E-01  2.50000000E-01
              kpt2     5.00000000E-01  0.00000000E+00  0.00000000E+00
                       4.16666667E-01  0.00000000E+00  0.00000000E+00
                       3.33333333E-01  0.00000000E+00  0.00000000E+00
                       2.50000000E-01  0.00000000E+00  0.00000000E+00
                       1.66666667E-01  0.00000000E+00  0.00000000E+00
                       8.33333333E-02  0.00000000E+00  0.00000000E+00
                       0.00000000E+00  0.00000000E+00  0.00000000E+00
                       0.00000000E+00  7.14285714E-02  7.14285714E-02
                       0.00000000E+00  1.42857143E-01  1.42857143E-01
                       0.00000000E+00  2.14285714E-01  2.14285714E-01
                       0.00000000E+00  2.85714286E-01  2.85714286E-01
                       0.00000000E+00  3.57142857E-01  3.57142857E-01
                       0.00000000E+00  4.28571429E-01  4.28571429E-01
                       0.00000000E+00  5.00000000E-01  5.00000000E-01
           kptopt1          1
           kptopt2         -2
         kptrlatt        8    0    0      0    8    0      0    0    8
          kptrlen1     5.84601840E+01
          kptrlen2     3.00000000E+01
P           mkmem1         29
P           mkmem2         14
            natom           2
            nband1          8
            nband2          8
           nbdbuf1          0
           nbdbuf2          2
           ndtset           2
            ngfft          18      18      18
             nkpt1         29
             nkpt2         14
             nsym          48
           ntypat           1
              occ      2.000000  2.000000  2.000000  2.000000  0.000000  0.000000
                       0.000000  0.000000
            rprim      6.3285005521E+00  0.0000000000E+00  3.6537614973E+00
                       2.1095001840E+00  5.9665675402E+00  3.6537614973E+00
                       0.0000000000E+00  0.0000000000E+00  7.3075229946E+00
           shiftk1     0.00000000E+00  0.00000000E+00  0.00000000E+00
           shiftk2     5.00000000E-01  5.00000000E-01  5.00000000E-01
          spgroup         227
           symrel      1  0  0   0  1  0   0  0  1      -1  0  0   0 -1  0   0  0 -1
                       0 -1  1   0 -1  0   1 -1  0       0  1 -1   0  1  0  -1  1  0
                      -1  0  0  -1  0  1  -1  1  0       1  0  0   1  0 -1   1 -1  0
                       0  1 -1   1  0 -1   0  0 -1       0 -1  1  -1  0  1   0  0  1
                      -1  0  0  -1  1  0  -1  0  1       1  0  0   1 -1  0   1  0 -1
                       0 -1  1   1 -1  0   0 -1  0       0  1 -1  -1  1  0   0  1  0
                       1  0  0   0  0  1   0  1  0      -1  0  0   0  0 -1   0 -1  0
                       0  1 -1   0  0 -1   1  0 -1       0 -1  1   0  0  1  -1  0  1
                      -1  0  1  -1  1  0  -1  0  0       1  0 -1   1 -1  0   1  0  0
                       0 -1  0   1 -1  0   0 -1  1       0  1  0  -1  1  0   0  1 -1
                       1  0 -1   0  0 -1   0  1 -1      -1  0  1   0  0  1   0 -1  1
                       0  1  0   0  0  1   1  0  0       0 -1  0   0  0 -1  -1  0  0
                       1  0 -1   0  1 -1   0  0 -1      -1  0  1   0 -1  1   0  0  1
                       0 -1  0   0 -1  1   1 -1  0       0  1  0   0  1 -1  -1  1  0
                      -1  0  1  -1  0  0  -1  1  0       1  0 -1   1  0  0   1 -1  0
                       0  1  0   1  0  0   0  0  1       0 -1  0  -1  0  0   0  0 -1
                       0  0 -1   0  1 -1   1  0 -1       0  0  1   0 -1  1  -1  0  1
                       1 -1  0   0 -1  1   0 -1  0      -1  1  0   0  1 -1   0  1  0
                       0  0  1   1  0  0   0  1  0       0  0 -1  -1  0  0   0 -1  0
                      -1  1  0  -1  0  0  -1  0  1       1 -1  0   1  0  0   1  0 -1
                       0  0  1   0  1  0   1  0  0       0  0 -1   0 -1  0  -1  0  0
                       1 -1  0   0 -1  0   0 -1  1      -1  1  0   0  1  0   0  1 -1
                       0  0 -1   1  0 -1   0  1 -1       0  0  1  -1  0  1   0 -1  1
                      -1  1  0  -1  0  1  -1  0  0       1 -1  0   1  0 -1   1  0  0
           timopt          -1
            tnons      0.0000000  0.0000000  0.0000000     0.2500000  0.2500000  0.2500000
                       0.0000000  0.0000000  0.0000000     0.2500000  0.2500000  0.2500000
                       0.0000000  0.0000000  0.0000000     0.2500000  0.2500000  0.2500000
                       0.0000000  0.0000000  0.0000000     0.2500000  0.2500000  0.2500000
                       0.0000000  0.0000000  0.0000000     0.2500000  0.2500000  0.2500000
                       0.0000000  0.0000000  0.0000000     0.2500000  0.2500000  0.2500000
                       0.0000000  0.0000000  0.0000000     0.2500000  0.2500000  0.2500000
                       0.0000000  0.0000000  0.0000000     0.2500000  0.2500000  0.2500000
                       0.0000000  0.0000000  0.0000000     0.2500000  0.2500000  0.2500000
                       0.0000000  0.0000000  0.0000000     0.2500000  0.2500000  0.2500000
                       0.0000000  0.0000000  0.0000000     0.2500000  0.2500000  0.2500000
                       0.0000000  0.0000000  0.0000000     0.2500000  0.2500000  0.2500000
                       0.0000000  0.0000000  0.0000000     0.2500000  0.2500000  0.2500000
                       0.0000000  0.0000000  0.0000000     0.2500000  0.2500000  0.2500000
                       0.0000000  0.0000000  0.0000000     0.2500000  0.2500000  0.2500000
                       0.0000000  0.0000000  0.0000000     0.2500000  0.2500000  0.2500000
                       0.0000000  0.0000000  0.0000000     0.2500000  0.2500000  0.2500000
                       0.0000000  0.0000000  0.0000000     0.2500000  0.2500000  0.2500000
                       0.0000000  0.0000000  0.0000000     0.2500000  0.2500000  0.2500000
                       0.0000000  0.0000000  0.0000000     0.2500000  0.2500000  0.2500000
                       0.0000000  0.0000000  0.0000000     0.2500000  0.2500000  0.2500000
                       0.0000000  0.0000000  0.0000000     0.2500000  0.2500000  0.2500000
                       0.0000000  0.0000000  0.0000000     0.2500000  0.2500000  0.2500000
                       0.0000000  0.0000000  0.0000000     0.2500000  0.2500000  0.2500000
           tolvrs1     1.00000000E-06
           tolvrs2     0.00000000E+00
           tolwfr1     0.00000000E+00
           tolwfr2     1.00000000E-12
            typat      1  1
              wtk1       0.00195    0.01563    0.01563    0.01563    0.00781    0.01172
                         0.04688    0.04688    0.04688    0.04688    0.04688    0.02344
                         0.01172    0.04688    0.04688    0.04688    0.02344    0.01172
                         0.04688    0.02344    0.00586    0.04688    0.09375    0.04688
                         0.04688    0.09375    0.04688    0.02344    0.01172
              wtk2       1.00000    1.00000    1.00000    1.00000    1.00000    1.00000
                         1.00000    1.00000    1.00000    1.00000    1.00000    1.00000
                         1.00000    1.00000
           xangst      0.0000000000E+00  0.0000000000E+00  0.0000000000E+00
                       1.1162994189E+00  7.8934288895E-01  1.9334873100E+00
            xcart      0.0000000000E+00  0.0000000000E+00  0.0000000000E+00
                       2.1095001840E+00  1.4916418850E+00  3.6537614973E+00
             xred      0.0000000000E+00  0.0000000000E+00  0.0000000000E+00
                       2.5000000000E-01  2.5000000000E-01  2.5000000000E-01
            znucl       14.00000

================================================================================

 chkinp: Checking input parameters for consistency, jdtset=   1.

 chkinp: Checking input parameters for consistency, jdtset=   2.

================================================================================
== DATASET  1 ==================================================================
-   nproc =    1

 Exchange-correlation functional for the present dataset will be:
  LDA: new Teter (4/93) with spin-polarized option - ixc=1
 Citation for XC functional:
  S. Goedecker, M. Teter, J. Huetter, PRB 54, 1703 (1996)

 Real(R)+Recip(G) space primitive vectors, cartesian coordinates (Bohr,Bohr^-1):
 R(1)=  6.3285006  0.0000000  3.6537615  G(1)=  0.1580153 -0.0558668  0.0000000
 R(2)=  2.1095002  5.9665675  3.6537615  G(2)=  0.0000000  0.1676005  0.0000000
 R(3)=  0.0000000  0.0000000  7.3075230  G(3)= -0.0790077 -0.0558668  0.1368453
 Unit cell volume ucvol=  2.7592787E+02 bohr^3
 Angles (23,13,12)=  6.00000000E+01  6.00000000E+01  6.00000000E+01 degrees

 getcut: wavevector=  0.0000  0.0000  0.0000  ngfft=  18  18  18
         ecut(hartree)=      6.000   => boxcut(ratio)=   2.24077

 getcut : COMMENT -
  Note that boxcut > 2.2 ; recall that boxcut=Gcut(box)/Gcut(sphere) = 2
  is sufficient for exact treatment of convolution.
  Such a large boxcut is a waste : you could raise ecut
  e.g. ecut=    7.531595 Hartrees makes boxcut=2


--- Pseudopotential description ------------------------------------------------
- pspini: atom type   1  psp file is /Users/gmatteo/git/abipy/abipy/data/pseudos/14si.pspnc
- pspatm: opening atomic psp file    /Users/gmatteo/git/abipy/abipy/data/pseudos/14si.pspnc
-  Troullier-Martins psp for element  Si        Thu Oct 27 17:31:21 EDT 1994
- 14.00000   4.00000    940714                znucl, zion, pspdat
    1    1    2    2      2001   0.00000      pspcod,pspxc,lmax,lloc,mmax,r2well
    0   5.907  14.692    1   2.0872718        l,e99.0,e99.9,nproj,rcpsp
   0.00000000   0.00000000   0.00000000   0.00000000     rms, ekb1, ekb2, epsatm
    1   2.617   4.181    1   2.0872718        l,e99.0,e99.9,nproj,rcpsp
   0.00000000   0.00000000   0.00000000   0.00000000     rms, ekb1, ekb2, epsatm
    2   0.000   0.000    0   2.0872718        l,e99.0,e99.9,nproj,rcpsp
   0.00000000   0.00000000   0.00000000   0.00000000     rms, ekb1, ekb2, epsatm
    1.80626423934776    0.22824404341771    1.17378968127746   rchrg,fchrg,qchrg
 pspatm: epsatm=    1.43386982
         --- l  ekb(1:nproj) -->
             0    3.287949
             1    1.849886
 pspatm: atomic psp has been read  and splines computed

   2.29419171E+01                                ecore*ucvol(ha*bohr**3)
--------------------------------------------------------------------------------

_setup2: Arith. and geom. avg. npw (full set) are     193.838     193.790

================================================================================

     iter   Etot(hartree)      deltaE(h)  residm     vres2
 ETOT  1  -8.8604027881453    -8.860E+00 2.458E-02 3.748E+00
 ETOT  2  -8.8651458182228    -4.743E-03 3.973E-04 1.755E-01
 ETOT  3  -8.8652752749931    -1.295E-04 7.675E-05 3.403E-03
 ETOT  4  -8.8652767614606    -1.486E-06 1.132E-04 9.216E-06
 ETOT  5  -8.8652767680605    -6.600E-09 6.036E-05 3.534E-08

 At SCF step    5       vres2   =  3.53E-08 < tolvrs=  1.00E-06 =>converged.

 Cartesian components of stress tensor (hartree/bohr^3)
  sigma(1 1)=  1.77139311E-04  sigma(3 2)=  0.00000000E+00
  sigma(2 2)=  1.77139311E-04  sigma(3 1)=  0.00000000E+00
  sigma(3 3)=  1.77139311E-04  sigma(2 1)=  2.67309735E-15

 Integrated electronic density in atomic spheres:
 ------------------------------------------------
 Atom  Sphere_radius  Integrated_density
    1        2.00000          1.69605869
    2        2.00000          1.70114747
================================================================================

 ----iterations are completed or convergence reached----

 Mean square residual over all n,k,spin=   2.7618E-07; max=  6.0363E-05
 reduced coordinates (array xred) for    2 atoms
       0.000000000000      0.000000000000      0.000000000000
       0.250000000000      0.250000000000      0.250000000000
 rms dE/dt=  4.1552E-28; max dE/dt=  5.1920E-28; dE/dt below (all hartree)
    1       0.000000000000      0.000000000000     -0.000000000000
    2      -0.000000000000     -0.000000000000      0.000000000000

 cartesian coordinates (angstrom) at end:
    1      0.00000000000000     0.00000000000000     0.00000000000000
    2      1.11629941890244     0.78934288894668     1.93348730999483

 cartesian forces (hartree/bohr) at end:
    1     -0.00000000000000    -0.00000000000000     0.00000000000000
    2      0.00000000000000     0.00000000000000    -0.00000000000000
 frms,max,avg= 7.6982914E-29 1.1472668E-28   0.000E+00  0.000E+00  0.000E+00 h/b

 cartesian forces (eV/Angstrom) at end:
    1     -0.00000000000000    -0.00000000000000     0.00000000000000
    2      0.00000000000000     0.00000000000000    -0.00000000000000
 frms,max,avg= 3.9586203E-27 5.8994826E-27   0.000E+00  0.000E+00  0.000E+00 e/A
 length scales=  1.000000000000  1.000000000000  1.000000000000 bohr
              =  0.529177208590  0.529177208590  0.529177208590 angstroms
 prteigrs : about to open file out_DS1_EIG
 Fermi (or HOMO) energy (hartree) =   0.20574   Average Vxc (hartree)=  -0.34985
 Eigenvalues (hartree) for nkpt=  29  k points:
 kpt#   1, nband=  8, wtk=  0.00195, kpt=  0.0000  0.0000  0.0000 (reduced coord)
  -0.22996    0.20574    0.20574    0.20574    0.29878    0.29878    0.29878    0.31214
 prteigrs : prtvol=0 or 1, do not print more k-points.


--------------------------------------------------------------------------------
 Components of total free energy (in Hartree) :

    Kinetic energy  =  2.96421325671053E+00
    Hartree energy  =  5.50857051418968E-01
    XC energy       = -3.51815936301728E+00
    Ewald energy    = -8.33998919456550E+00
    PspCore energy  =  8.31446161871628E-02
    Loc. psp. energy= -2.52195004380833E+00
    NL   psp  energy=  1.91660690901397E+00
    >>>>>>>>> Etotal= -8.86527676806048E+00

 Other information on the energy :
    Total energy(eV)= -2.41236449160834E+02 ; Band energy (Ha)=   1.6365398581E-01
--------------------------------------------------------------------------------

 Cartesian components of stress tensor (hartree/bohr^3)
  sigma(1 1)=  1.77139311E-04  sigma(3 2)=  0.00000000E+00
  sigma(2 2)=  1.77139311E-04  sigma(3 1)=  0.00000000E+00
  sigma(3 3)=  1.77139311E-04  sigma(2 1)=  2.67309735E-15

-Cartesian components of stress tensor (GPa)         [Pressure= -5.2116E+00 GPa]
- sigma(1 1)=  5.21161758E+00  sigma(3 2)=  0.00000000E+00
- sigma(2 2)=  5.21161758E+00  sigma(3 1)=  0.00000000E+00
- sigma(3 3)=  5.21161758E+00  sigma(2 1)=  7.86452261E-11

================================================================================
== DATASET  2 ==================================================================
-   nproc =    1

 mkfilename : getden/=0, take file _DEN from output of DATASET   1.

 Exchange-correlation functional for the present dataset will be:
  LDA: new Teter (4/93) with spin-polarized option - ixc=1
 Citation for XC functional:
  S. Goedecker, M. Teter, J. Huetter, PRB 54, 1703 (1996)

 Real(R)+Recip(G) space primitive vectors, cartesian coordinates (Bohr,Bohr^-1):
 R(1)=  6.3285006  0.0000000  3.6537615  G(1)=  0.1580153 -0.0558668  0.0000000
 R(2)=  2.1095002  5.9665675  3.6537615  G(2)=  0.0000000  0.1676005  0.0000000
 R(3)=  0.0000000  0.0000000  7.3075230  G(3)= -0.0790077 -0.0558668  0.1368453
 Unit cell volume ucvol=  2.7592787E+02 bohr^3
 Angles (23,13,12)=  6.00000000E+01  6.00000000E+01  6.00000000E+01 degrees

 getcut: wavevector=  0.0000  0.0000  0.0000  ngfft=  18  18  18
         ecut(hartree)=      6.000   => boxcut(ratio)=   2.24077

 getcut : COMMENT -
  Note that boxcut > 2.2 ; recall that boxcut=Gcut(box)/Gcut(sphere) = 2
  is sufficient for exact treatment of convolution.
  Such a large boxcut is a waste : you could raise ecut
  e.g. ecut=    7.531595 Hartrees makes boxcut=2

--------------------------------------------------------------------------------


================================================================================
 prteigrs : about to open file out_DS2_EIG
 Non-SCF case, kpt    1 (  0.50000  0.00000  0.00000), residuals and eigenvalues=
  4.42E-13  2.31E-13  1.30E-13  2.39E-13  6.21E-14  2.33E-13  2.40E-13  2.25E-12
 -1.4470E-01 -4.9022E-02  1.6145E-01  1.6145E-01  2.5518E-01  3.2944E-01
  3.2944E-01  4.8086E-01
  prteigrs : nnsclo,ikpt=   30    1 max resid (incl. the buffer)=  2.24594E-12
 Non-SCF case, kpt    2 (  0.41667  0.00000  0.00000), residuals and eigenvalues=
  4.42E-13  1.14E-13  7.16E-13  5.49E-13  4.86E-13  3.89E-13  8.27E-13  7.42E-09
 -1.5721E-01 -3.0735E-02  1.6328E-01  1.6328E-01  2.5704E-01  3.3114E-01
  3.3114E-01  4.8344E-01
  prteigrs : nnsclo,ikpt=   30    2 max resid (incl. the buffer)=  7.42189E-09
 Non-SCF case, kpt    3 (  0.33333  0.00000  0.00000), residuals and eigenvalues=
  1.01E-13  9.63E-14  7.12E-13  1.18E-13  1.40E-13  1.22E-13  6.16E-13  1.08E-05
 -1.8023E-01  1.0137E-02  1.6865E-01  1.6865E-01  2.6285E-01  3.3458E-01
  3.3458E-01  4.8348E-01
  prteigrs : nnsclo,ikpt=   30    3 max resid (incl. the buffer)=  1.08148E-05
 Non-SCF case, kpt    4 (  0.25000  0.00000  0.00000), residuals and eigenvalues=
  2.44E-13  2.61E-13  4.17E-13  1.26E-13  4.32E-13  6.16E-13  1.44E-12  3.53E-06
 -2.0116E-01  6.1369E-02  1.7757E-01  1.7757E-01  2.7275E-01  3.3385E-01
  3.3385E-01  4.4543E-01
  prteigrs : nnsclo,ikpt=   30    4 max resid (incl. the buffer)=  3.52597E-06
 Non-SCF case, kpt    5 (  0.16667  0.00000  0.00000), residuals and eigenvalues=
  2.86E-13  6.39E-13  2.19E-13  6.39E-13  3.47E-13  9.69E-13  2.62E-13  5.43E-10
 -2.1688E-01  1.1774E-01  1.8910E-01  1.8910E-01  2.8577E-01  3.2262E-01
  3.2262E-01  3.9244E-01
  prteigrs : nnsclo,ikpt=   30    5 max resid (incl. the buffer)=  5.43280E-10
 Non-SCF case, kpt    6 (  0.08333  0.00000  0.00000), residuals and eigenvalues=
  4.11E-13  3.28E-13  1.04E-13  5.80E-13  2.23E-13  4.08E-13  4.86E-13  6.21E-13
 -2.2651E-01  1.7364E-01  2.0049E-01  2.0049E-01  2.9753E-01  3.0654E-01
  3.0654E-01  3.3966E-01
 Non-SCF case, kpt    7 (  0.00000  0.00000  0.00000), residuals and eigenvalues=
  4.72E-13  3.82E-14  4.61E-14  1.23E-13  1.70E-13  4.75E-13  1.97E-13  3.82E-13
 -2.2996E-01  2.0573E-01  2.0573E-01  2.0573E-01  2.9878E-01  2.9878E-01
  2.9878E-01  3.1214E-01
 Non-SCF case, kpt    8 (  0.00000  0.07143  0.07143), residuals and eigenvalues=
  2.16E-13  1.51E-13  2.64E-13  3.16E-13  1.46E-13  9.42E-13  5.98E-13  1.02E-12
 -2.2653E-01  1.8526E-01  1.9369E-01  1.9369E-01  2.9098E-01  3.1500E-01
  3.1500E-01  3.3143E-01
  prteigrs : nnsclo,ikpt=   30    8 max resid (incl. the buffer)=  1.01622E-12
 Non-SCF case, kpt    9 (  0.00000  0.14286  0.14286), residuals and eigenvalues=
  8.97E-13  7.68E-13  8.36E-14  8.94E-13  7.90E-13  5.99E-13  8.64E-13  1.46E-12
 -2.1706E-01  1.4447E-01  1.7001E-01  1.7001E-01  2.7309E-01  3.4995E-01
  3.4995E-01  3.5633E-01
  prteigrs : nnsclo,ikpt=   30    9 max resid (incl. the buffer)=  1.46148E-12
 Non-SCF case, kpt   10 (  0.00000  0.21429  0.21429), residuals and eigenvalues=
  7.46E-13  5.65E-14  3.70E-13  8.06E-13  4.33E-13  2.91E-13  8.40E-11  2.18E-10
 -2.0108E-01  9.9201E-02  1.4670E-01  1.4670E-01  2.5403E-01  3.3679E-01
  3.9237E-01  3.9237E-01
  prteigrs : nnsclo,ikpt=   30   10 max resid (incl. the buffer)=  2.18310E-10
 Non-SCF case, kpt   11 (  0.00000  0.28571  0.28571), residuals and eigenvalues=
  4.84E-13  9.57E-14  1.24E-13  6.61E-14  7.85E-13  5.62E-13  1.70E-09  9.84E-08
 -1.7912E-01  5.2014E-02  1.2721E-01  1.2721E-01  2.3818E-01  2.9991E-01
  4.3671E-01  4.3671E-01
  prteigrs : nnsclo,ikpt=   30   11 max resid (incl. the buffer)=  9.83778E-08
 Non-SCF case, kpt   12 (  0.00000  0.35714  0.35714), residuals and eigenvalues=
  3.74E-13  3.91E-13  1.13E-13  1.09E-13  9.82E-13  2.65E-13  1.77E-09  2.39E-08
 -1.5117E-01  6.1615E-03  1.1284E-01  1.1284E-01  2.2781E-01  2.6785E-01
  4.8394E-01  4.8394E-01
  prteigrs : nnsclo,ikpt=   30   12 max resid (incl. the buffer)=  2.39045E-08
 Non-SCF case, kpt   13 (  0.00000  0.42857  0.42857), residuals and eigenvalues=
  7.79E-13  4.27E-13  1.37E-13  1.15E-13  2.66E-13  9.34E-13  2.35E-10  2.61E-09
 -1.1789E-01 -3.8214E-02  1.0411E-01  1.0411E-01  2.2500E-01  2.4453E-01
  5.3169E-01  5.3169E-01
  prteigrs : nnsclo,ikpt=   30   13 max resid (incl. the buffer)=  2.61173E-09
 Non-SCF case, kpt   14 (  0.00000  0.50000  0.50000), residuals and eigenvalues=
  2.58E-13  4.39E-13  5.57E-14  5.72E-14  8.49E-14  1.18E-13  1.81E-08  2.61E-06
 -7.9834E-02 -7.9834E-02  1.0119E-01  1.0119E-01  2.3051E-01  2.3051E-01
  5.6456E-01  5.6456E-01
  prteigrs : nnsclo,ikpt=   30   14 max resid (incl. the buffer)=  2.60548E-06

 Integrated electronic density in atomic spheres:
 ------------------------------------------------
 Atom  Sphere_radius  Integrated_density
    1        2.00000          1.69605869
    2        2.00000          1.70114747
================================================================================

 ----iterations are completed or convergence reached----

 Mean square residual over all n,k,spin=   1.5269E-07; max=  1.0815E-05
 reduced coordinates (array xred) for    2 atoms
       0.000000000000      0.000000000000      0.000000000000
       0.250000000000      0.250000000000      0.250000000000

 cartesian coordinates (angstrom) at end:
    1      0.00000000000000     0.00000000000000     0.00000000000000
    2      1.11629941890244     0.78934288894668     1.93348730999483
 length scales=  1.000000000000  1.000000000000  1.000000000000 bohr
              =  0.529177208590  0.529177208590  0.529177208590 angstroms
 prteigrs : about to open file out_DS2_EIG
 Eigenvalues (hartree) for nkpt=  14  k points:
 kpt#   1, nband=  8, wtk=  1.00000, kpt=  0.5000  0.0000  0.0000 (reduced coord)
  -0.14470   -0.04902    0.16145    0.16145    0.25518    0.32944    0.32944    0.48086
 kpt#   2, nband=  8, wtk=  1.00000, kpt=  0.4167  0.0000  0.0000 (reduced coord)
  -0.15721   -0.03074    0.16328    0.16328    0.25704    0.33114    0.33114    0.48344
 kpt#   3, nband=  8, wtk=  1.00000, kpt=  0.3333  0.0000  0.0000 (reduced coord)
  -0.18023    0.01014    0.16865    0.16865    0.26285    0.33458    0.33458    0.48348
 kpt#   4, nband=  8, wtk=  1.00000, kpt=  0.2500  0.0000  0.0000 (reduced coord)
  -0.20116    0.06137    0.17757    0.17757    0.27275    0.33385    0.33385    0.44543
 kpt#   5, nband=  8, wtk=  1.00000, kpt=  0.1667  0.0000  0.0000 (reduced coord)
  -0.21688    0.11774    0.18910    0.18910    0.28577    0.32262    0.32262    0.39244
 kpt#   6, nband=  8, wtk=  1.00000, kpt=  0.0833  0.0000  0.0000 (reduced coord)
  -0.22651    0.17364    0.20049    0.20049    0.29753    0.30654    0.30654    0.33966
 kpt#   7, nband=  8, wtk=  1.00000, kpt=  0.0000  0.0000  0.0000 (reduced coord)
  -0.22996    0.20573    0.20573    0.20573    0.29878    0.29878    0.29878    0.31214
 kpt#   8, nband=  8, wtk=  1.00000, kpt=  0.0000  0.0714  0.0714 (reduced coord)
  -0.22653    0.18526    0.19369    0.19369    0.29098    0.31500    0.31500    0.33143
 kpt#   9, nband=  8, wtk=  1.00000, kpt=  0.0000  0.1429  0.1429 (reduced coord)
  -0.21706    0.14447    0.17001    0.17001    0.27309    0.34995    0.34995    0.35633
 kpt#  10, nband=  8, wtk=  1.00000, kpt=  0.0000  0.2143  0.2143 (reduced coord)
  -0.20108    0.09920    0.14670    0.14670    0.25403    0.33679    0.39237    0.39237
 kpt#  11, nband=  8, wtk=  1.00000, kpt=  0.0000  0.2857  0.2857 (reduced coord)
  -0.17912    0.05201    0.12721    0.12721    0.23818    0.29991    0.43671    0.43671
 kpt#  12, nband=  8, wtk=  1.00000, kpt=  0.0000  0.3571  0.3571 (reduced coord)
  -0.15117    0.00616    0.11284    0.11284    0.22781    0.26785    0.48394    0.48394
 kpt#  13, nband=  8, wtk=  1.00000, kpt=  0.0000  0.4286  0.4286 (reduced coord)
  -0.11789   -0.03821    0.10411    0.10411    0.22500    0.24453    0.53169    0.53169
 kpt#  14, nband=  8, wtk=  1.00000, kpt=  0.0000  0.5000  0.5000 (reduced coord)
  -0.07983   -0.07983    0.10119    0.10119    0.23051    0.23051    0.56456    0.56456

== END DATASET(S) ==============================================================
================================================================================
  
 -outvars: echo values of variables after computation  --------
-          iomode           3
            acell      1.0000000000E+00  1.0000000000E+00  1.0000000000E+00 Bohr
              amu      2.80855000E+01
             ecut      6.00000000E+00 Hartree
           etotal1    -8.8652767681E+00
            fcart1    -1.1472667967E-28 -3.7603729048E-29  5.6593777381E-29
                       1.1472667967E-28  3.7603729048E-29 -5.6593777381E-29
-          fftalg         112
           getden1          0
           getden2         -1
             iscf1          7
             iscf2         -2
           istwfk1       1    0    0    0    1    0    0    0    0    0
                         0    0    0    0    0    0    0    0    0    0
                         1    0    0    0    0    0    0    0    0
           istwfk2       1    0    0    0    0    0    1    0    0    0
                         0    0    0    1
           jdtset        1    2
              kpt1     0.00000000E+00  0.00000000E+00  0.00000000E+00
                       1.25000000E-01  0.00000000E+00  0.00000000E+00
                       2.50000000E-01  0.00000000E+00  0.00000000E+00
                       3.75000000E-01  0.00000000E+00  0.00000000E+00
                       5.00000000E-01  0.00000000E+00  0.00000000E+00
                       1.25000000E-01  1.25000000E-01  0.00000000E+00
                       2.50000000E-01  1.25000000E-01  0.00000000E+00
                       3.75000000E-01  1.25000000E-01  0.00000000E+00
                       5.00000000E-01  1.25000000E-01  0.00000000E+00
                      -3.75000000E-01  1.25000000E-01  0.00000000E+00
                      -2.50000000E-01  1.25000000E-01  0.00000000E+00
                      -1.25000000E-01  1.25000000E-01  0.00000000E+00
                       2.50000000E-01  2.50000000E-01  0.00000000E+00
                       3.75000000E-01  2.50000000E-01  0.00000000E+00
                       5.00000000E-01  2.50000000E-01  0.00000000E+00
                      -3.75000000E-01  2.50000000E-01  0.00000000E+00
                      -2.50000000E-01  2.50000000E-01  0.00000000E+00
                       3.75000000E-01  3.75000000E-01  0.00000000E+00
                       5.00000000E-01  3.75000000E-01  0.00000000E+00
                      -3.75000000E-01  3.75000000E-01  0.00000000E+00
                       5.00000000E-01  5.00000000E-01  0.00000000E+00
                       3.75000000E-01  2.50000000E-01  1.25000000E-01
                       5.00000000E-01  2.50000000E-01  1.25000000E-01
                      -3.75000000E-01  2.50000000E-01  1.25000000E-01
                       5.00000000E-01  3.75000000E-01  1.25000000E-01
                      -3.75000000E-01  3.75000000E-01  1.25000000E-01
                      -2.50000000E-01  3.75000000E-01  1.25000000E-01
                      -3.75000000E-01  5.00000000E-01  1.25000000E-01
                      -2.50000000E-01  5.00000000E-01  2.50000000E-01
              kpt2     5.00000000E-01  0.00000000E+00  0.00000000E+00
                       4.16666667E-01  0.00000000E+00  0.00000000E+00
                       3.33333333E-01  0.00000000E+00  0.00000000E+00
                       2.50000000E-01  0.00000000E+00  0.00000000E+00
                       1.66666667E-01  0.00000000E+00  0.00000000E+00
                       8.33333333E-02  0.00000000E+00  0.00000000E+00
                       0.00000000E+00  0.00000000E+00  0.00000000E+00
                       0.00000000E+00  7.14285714E-02  7.14285714E-02
                       0.00000000E+00  1.42857143E-01  1.42857143E-01
                       0.00000000E+00  2.14285714E-01  2.14285714E-01
                       0.00000000E+00  2.85714286E-01  2.85714286E-01
                       0.00000000E+00  3.57142857E-01  3.57142857E-01
                       0.00000000E+00  4.28571429E-01  4.28571429E-01
                       0.00000000E+00  5.00000000E-01  5.00000000E-01
           kptopt1          1
           kptopt2         -2
         kptrlatt        8    0    0      0    8    0      0    0    8
          kptrlen1     5.84601840E+01
          kptrlen2     3.00000000E+01
P           mkmem1         29
P           mkmem2         14
            natom           2
            nband1          8
            nband2          8
           nbdbuf1          0
           nbdbuf2          2
           ndtset           2
            ngfft          18      18      18
             nkpt1         29
             nkpt2         14
             nsym          48
           ntypat           1
              occ      2.000000  2.000000  2.000000  2.000000  0.000000  0.000000
                       0.000000  0.000000
            rprim      6.3285005521E+00  0.0000000000E+00  3.6537614973E+00
                       2.1095001840E+00  5.9665675402E+00  3.6537614973E+00
                       0.0000000000E+00  0.0000000000E+00  7.3075229946E+00
           shiftk1     0.00000000E+00  0.00000000E+00  0.00000000E+00
           shiftk2     5.00000000E-01  5.00000000E-01  5.00000000E-01
          spgroup         227
           strten1     1.7713931077E-04  1.7713931076E-04  1.7713931077E-04
                       0.0000000000E+00  0.0000000000E+00  2.6730973534E-15
           symrel      1  0  0   0  1  0   0  0  1      -1  0  0   0 -1  0   0  0 -1
                       0 -1  1   0 -1  0   1 -1  0       0  1 -1   0  1  0  -1  1  0
                      -1  0  0  -1  0  1  -1  1  0       1  0  0   1  0 -1   1 -1  0
                       0  1 -1   1  0 -1   0  0 -1       0 -1  1  -1  0  1   0  0  1
                      -1  0  0  -1  1  0  -1  0  1       1  0  0   1 -1  0   1  0 -1
                       0 -1  1   1 -1  0   0 -1  0       0  1 -1  -1  1  0   0  1  0
                       1  0  0   0  0  1   0  1  0      -1  0  0   0  0 -1   0 -1  0
                       0  1 -1   0  0 -1   1  0 -1       0 -1  1   0  0  1  -1  0  1
                      -1  0  1  -1  1  0  -1  0  0       1  0 -1   1 -1  0   1  0  0
                       0 -1  0   1 -1  0   0 -1  1       0  1  0  -1  1  0   0  1 -1
                       1  0 -1   0  0 -1   0  1 -1      -1  0  1   0  0  1   0 -1  1
                       0  1  0   0  0  1   1  0  0       0 -1  0   0  0 -1  -1  0  0
                       1  0 -1   0  1 -1   0  0 -1      -1  0  1   0 -1  1   0  0  1
                       0 -1  0   0 -1  1   1 -1  0       0  1  0   0  1 -1  -1  1  0
                      -1  0  1  -1  0  0  -1  1  0       1  0 -1   1  0  0   1 -1  0
                       0  1  0   1  0  0   0  0  1       0 -1  0  -1  0  0   0  0 -1
                       0  0 -1   0  1 -1   1  0 -1       0  0  1   0 -1  1  -1  0  1
                       1 -1  0   0 -1  1   0 -1  0      -1  1  0   0  1 -1   0  1  0
                       0  0  1   1  0  0   0  1  0       0  0 -1  -1  0  0   0 -1  0
                      -1  1  0  -1  0  0  -1  0  1       1 -1  0   1  0  0   1  0 -1
                       0  0  1   0  1  0   1  0  0       0  0 -1   0 -1  0  -1  0  0
                       1 -1  0   0 -1  0   0 -1  1      -1  1  0   0  1  0   0  1 -1
                       0  0 -1   1  0 -1   0  1 -1       0  0  1  -1  0  1   0 -1  1
                      -1  1  0  -1  0  1  -1  0  0       1 -1  0   1  0 -1   1  0  0
           timopt          -1
            tnons      0.0000000  0.0000000  0.0000000     0.2500000  0.2500000  0.2500000
                       0.0000000  0.0000000  0.0000000     0.2500000  0.2500000  0.2500000
                       0.0000000  0.0000000  0.0000000     0.2500000  0.2500000  0.2500000
                       0.0000000  0.0000000  0.0000000     0.2500000  0.2500000  0.2500000
                       0.0000000  0.0000000  0.0000000     0.2500000  0.2500000  0.2500000
                       0.0000000  0.0000000  0.0000000     0.2500000  0.2500000  0.2500000
                       0.0000000  0.0000000  0.0000000     0.2500000  0.2500000  0.2500000
                       0.0000000  0.0000000  0.0000000     0.2500000  0.2500000  0.2500000
                       0.0000000  0.0000000  0.0000000     0.2500000  0.2500000  0.2500000
                       0.0000000  0.0000000  0.0000000     0.2500000  0.2500000  0.2500000
                       0.0000000  0.0000000  0.0000000     0.2500000  0.2500000  0.2500000
                       0.0000000  0.0000000  0.0000000     0.2500000  0.2500000  0.2500000
                       0.0000000  0.0000000  0.0000000     0.2500000  0.2500000  0.2500000
                       0.0000000  0.0000000  0.0000000     0.2500000  0.2500000  0.2500000
                       0.0000000  0.0000000  0.0000000     0.2500000  0.2500000  0.2500000
                       0.0000000  0.0000000  0.0000000     0.2500000  0.2500000  0.2500000
                       0.0000000  0.0000000  0.0000000     0.2500000  0.2500000  0.2500000
                       0.0000000  0.0000000  0.0000000     0.2500000  0.2500000  0.2500000
                       0.0000000  0.0000000  0.0000000     0.2500000  0.2500000  0.2500000
                       0.0000000  0.0000000  0.0000000     0.2500000  0.2500000  0.2500000
                       0.0000000  0.0000000  0.0000000     0.2500000  0.2500000  0.2500000
                       0.0000000  0.0000000  0.0000000     0.2500000  0.2500000  0.2500000
                       0.0000000  0.0000000  0.0000000     0.2500000  0.2500000  0.2500000
                       0.0000000  0.0000000  0.0000000     0.2500000  0.2500000  0.2500000
           tolvrs1     1.00000000E-06
           tolvrs2     0.00000000E+00
           tolwfr1     0.00000000E+00
           tolwfr2     1.00000000E-12
            typat      1  1
              wtk1       0.00195    0.01563    0.01563    0.01563    0.00781    0.01172
                         0.04688    0.04688    0.04688    0.04688    0.04688    0.02344
                         0.01172    0.04688    0.04688    0.04688    0.02344    0.01172
                         0.04688    0.02344    0.00586    0.04688    0.09375    0.04688
                         0.04688    0.09375    0.04688    0.02344    0.01172
              wtk2       1.00000    1.00000    1.00000    1.00000    1.00000    1.00000
                         1.00000    1.00000    1.00000    1.00000    1.00000    1.00000
                         1.00000    1.00000
           xangst      0.0000000000E+00  0.0000000000E+00  0.0000000000E+00
                       1.1162994189E+00  7.8934288895E-01  1.9334873100E+00
            xcart      0.0000000000E+00  0.0000000000E+00  0.0000000000E+00
                       2.1095001840E+00  1.4916418850E+00  3.6537614973E+00
             xred      0.0000000000E+00  0.0000000000E+00  0.0000000000E+00
                       2.5000000000E-01  2.5000000000E-01  2.5000000000E-01
            znucl       14.00000

================================================================================

 Test the timer : 
  a combined call timab(*,1,tsec) + timab(*,2,tsec) is 
- CPU time =    1.1255E-06 sec,    Wall time =    1.1278E-06 sec

- Total cpu        time (s,m,h):          3.9        0.07      0.001
- Total wall clock time (s,m,h):          4.0        0.07      0.001
-
- For major independent code sections, cpu and wall times (sec),
-  as well as % of the time and number of calls for node 0-
-<BEGIN_TIMER mpi_nprocs = 1, omp_nthreads = 1, mpi_rank = 0>
- cpu_time =            3.9, wall_time =            4.0
-
- routine                        cpu     %       wall     %      number of calls  Gflops 
-                                                                  (-1=no count)
- fourwf%(pot)                   1.646  42.0      1.659  42.0          10141      -1.00    
- projbd                         0.713  18.2      0.614  15.5          15882      -1.00    
- pspini                         0.323   8.2      0.330   8.4              2      -1.00    
- invars2                        0.236   6.0      0.239   6.0              2      -1.00    
- nonlop(apply)                  0.230   5.9      0.238   6.0          10141      -1.00    
- timing timab                   0.146   3.7      0.146   3.7             13      -1.00    
- abinit(2)                      0.076   1.9      0.099   2.5              1      -1.00    
- getghc-other                   0.066   1.7      0.057   1.4             -1      -1.00    
- vtowfk(ssdiag)                 0.056   1.4      0.053   1.4             -1      -1.00    
- fourwf%(den)                   0.054   1.4      0.054   1.4            580      -1.00    
- newkpt(excl. rwwf   )          0.007   0.2      0.008   0.2             -1      -1.00    
- nonlop(forstr)                 0.005   0.1      0.005   0.1            116      -1.00    
- setsym                         0.004   0.1      0.004   0.1              2      -1.00    
- vtowfk(contrib)                0.004   0.1      0.004   0.1            159      -1.00    
- mkcore                         0.004   0.1      0.004   0.1              4      -1.00    
- xc:pot/=fourdp                 0.004   0.1      0.005   0.1              7      -1.00    
- fourdp                         0.003   0.1      0.004   0.1             29      -1.00    
- stress                         0.002   0.1      0.002   0.1              1      -1.00    
- forces                         0.002   0.1      0.003   0.1              1      -1.00    
- ewald                          0.002   0.0      0.002   0.1              2      -1.00    
- symrhg(no FFT)                 0.001   0.0      0.001   0.0              5      -1.00    
- vtowfk  (1)                    0.001   0.0      0.001   0.0            159      -1.00    
- kpgsph                         0.001   0.0      0.001   0.0             86      -1.00    
- ewald2 (+vdw_dftd)             0.001   0.0      0.001   0.0              1      -1.00    
- scfcv-scprqt                   0.000   0.0      0.001   0.0              5      -1.00    
- status                         0.000   0.0      0.000   0.0              1      -1.00    
- inwffil(excl. calls)           0.000   0.0      0.000   0.0              2      -1.00    
- dfpt_vtowfk(contrib)           0.000   0.0      0.000   0.0             -1      -1.00    
- dfpt_cgwf-O(npw)               0.000   0.0      0.000   0.0             -1      -1.00    
- others (83)                    0.000   0.0      0.000   0.0             -1      -1.00    
-<END_TIMER>
-
- subtotal                       3.584  91.5      3.535  89.4

- For major independent code sections, cpu and wall times (sec),
- as well as % of the total time and number of calls 

-<BEGIN_TIMER mpi_nprocs = 1, omp_nthreads = 1, mpi_rank = world>
- cpu_time =           3.9, wall_time =           4.0
-
- routine                         cpu     %       wall     %      number of calls Gflops 
-                                                                  (-1=no count)
- fourwf%(pot)                   1.646  42.0      1.659  42.0          10141      -1.00    
- projbd                         0.713  18.2      0.614  15.5          15882      -1.00    
- pspini                         0.323   8.2      0.330   8.4              2      -1.00    
- invars2                        0.236   6.0      0.239   6.0              2      -1.00    
- nonlop(apply)                  0.230   5.9      0.238   6.0          10141      -1.00    
- timing timab                   0.146   3.7      0.146   3.7             13      -1.00    
- abinit(2)                      0.076   1.9      0.099   2.5              1      -1.00    
- getghc-other                   0.066   1.7      0.057   1.4             -1      -1.00    
- vtowfk(ssdiag)                 0.056   1.4      0.053   1.4             -1      -1.00    
- fourwf%(den)                   0.054   1.4      0.054   1.4            580      -1.00    
- newkpt(excl. rwwf   )          0.007   0.2      0.008   0.2             -1      -1.00    
- nonlop(forstr)                 0.005   0.1      0.005   0.1            116      -1.00    
- setsym                         0.004   0.1      0.004   0.1              2      -1.00    
- vtowfk(contrib)                0.004   0.1      0.004   0.1            159      -1.00    
- mkcore                         0.004   0.1      0.004   0.1              4      -1.00    
- xc:pot/=fourdp                 0.004   0.1      0.005   0.1              7      -1.00    
- fourdp                         0.003   0.1      0.004   0.1             29      -1.00    
- stress                         0.002   0.1      0.002   0.1              1      -1.00    
- forces                         0.002   0.1      0.003   0.1              1      -1.00    
- ewald                          0.002   0.0      0.002   0.1              2      -1.00    
- symrhg(no FFT)                 0.001   0.0      0.001   0.0              5      -1.00    
- vtowfk  (1)                    0.001   0.0      0.001   0.0            159      -1.00    
- kpgsph                         0.001   0.0      0.001   0.0             86      -1.00    
- ewald2 (+vdw_dftd)             0.001   0.0      0.001   0.0              1      -1.00    
- scfcv-scprqt                   0.000   0.0      0.001   0.0              5      -1.00    
- status                         0.000   0.0      0.000   0.0              1      -1.00    
- inwffil(excl. calls)           0.000   0.0      0.000   0.0              2      -1.00    
- dfpt_vtowfk(contrib)           0.000   0.0      0.000   0.0             -1      -1.00    
- dfpt_cgwf-O(npw)               0.000   0.0      0.000   0.0             -1      -1.00    
- others (83)                    0.000   0.0      0.000   0.0             -1      -1.00    
-<END_TIMER>

- subtotal                       3.584  91.5      3.535  89.4

 Partitioning of abinit
- abinit                         3.918 100.0      3.953 100.0              1
 
- abinit(1)                      0.019   0.5      0.031   0.8              1
- abinit(2)                      0.076   1.9      0.099   2.5              1
- indefo+macroin+invars2m        0.237   6.0      0.240   6.1              1
- abinit(4)                      0.029   0.7      0.044   1.1              1
- abinit(5)                      0.008   0.2      0.013   0.3              1
- driver                         3.392  86.6      3.367  85.2              1
- abinit(6)                      0.011   0.3      0.011   0.3              1
- timing timab                   0.146   3.7      0.146   3.7             13
- (other)                        0.000   0.0      0.002   0.0             -1

- subtotal                       3.918 100.0      3.953 100.0

 Partitioning of driver
- driver                         3.392  86.6      3.367  85.2              1
 
- driver(bef. loop dtset)        0.000   0.0      0.002   0.0              1
- driver(bef. select case)       0.001   0.0      0.004   0.1              2
- gstateimg                      3.390  86.5      3.360  85.0              2

- subtotal                       3.392  86.6      3.367  85.2

 Partitioning of gstateimg+gstate
- gstateimg                      3.390  86.5      3.360  85.0              2
 
- gstateimg(init)                0.000   0.0      0.002   0.1              2
- gstate->kpgsph                 0.014   0.3      0.023   0.6              4
- gstate(pspini)                 0.323   8.2      0.330   8.4              2
- gstate  (2)                    0.004   0.1      0.009   0.2              2
- gstate(...scfcv)               3.015  77.0      2.945  74.5              2
- gstate  (3)                    0.034   0.9      0.050   1.3              2

- subtotal                       3.390  86.5      3.360  85.0

 Partitioning of scfcv
- scfcv                          3.015  76.9      2.945  74.5              2
 
- scfcv   (1)                    0.001   0.0      0.003   0.1              2
- scfcv(iniloop, setvtr  )       0.006   0.2      0.009   0.2              6
- scfcv(vtorho(f))               2.959  75.5      2.872  72.6              6
- scfcv(rhotov)                  0.003   0.1      0.003   0.1              5
- scfcv(mix pot)                 0.003   0.1      0.006   0.2              4
- scfcv(afterscfloop)            0.012   0.3      0.014   0.4              2
- scfcv(outscfcv)                0.031   0.8      0.036   0.9              2

- subtotal                       3.015  76.9      2.945  74.5

 Partitioning of rhotov
- rhotov                         0.003   0.1      0.003   0.1              5
 
- rhotov(rhohxc)                 0.003   0.1      0.003   0.1              5

- subtotal                       0.003   0.1      0.003   0.1

 Partitioning of vtorho
- vtorho                         2.959  75.5      2.871  72.6              6
 
- vtorho(bef. spin loop)         0.000   0.0      0.001   0.0              6
- vtorho(bef. vtowfk)            0.010   0.2      0.010   0.3            159
- vtowfk                         2.941  75.1      2.847  72.0            159
- vtorho(mkrho 2)                0.005   0.1      0.010   0.2             11
- (other)                        0.001   0.0      0.001   0.0             -1

- subtotal                       2.959  75.5      2.871  72.6

 Partitioning of vtowfk
- vtowfk                         2.941  75.1      2.847  72.0            159
 
- cgwf                           2.827  72.2      2.735  69.2            275
- vtowfk(subdiago)               0.029   0.7      0.025   0.6            275
- vtowfk(pw_orthon)              0.021   0.5      0.021   0.5            275
- vtowfk(2)                      0.005   0.1      0.007   0.2             -1
- fourwf%vtowfk                  0.054   1.4      0.054   1.4            580
- vtowfk(nonlocalpart)           0.001   0.0      0.001   0.0            159
- vtowfk(3)                      0.003   0.1      0.002   0.1             -1

- subtotal                       2.941  75.1      2.847  72.0

 Partitioning of cgwf
- cgwf                           2.827  72.2      2.735  69.2            275
 
- getghc%cgwf                    1.941  49.5      1.954  49.4          10141
- cgwf-O(npw)                    0.173   4.4      0.167   4.2             -1
- projbd%cgwf                    0.713  18.2      0.614  15.5          15882

- subtotal                       2.827  72.2      2.735  69.2

 Partitioning of getghc
- getghc                         1.941  49.5      1.954  49.4          10141
 
- fourwf%getghc                  1.646  42.0      1.659  42.0          10141
- nonlop%getghc                  0.230   5.9      0.238   6.0          10141
- getghc-other                   0.066   1.7      0.057   1.4             -1

- subtotal                       1.941  49.5      1.954  49.4

 Partitioning of fourwf (upwards partitioning)
- fourwf                         1.700  43.4      1.714  43.4          10721
 
- fourwf%getghc                  1.646  42.0      1.659  42.0          10141
- fourwf%vtowfk                  0.054   1.4      0.054   1.4            580

- subtotal                       1.700  43.4      1.714  43.4

 Partitioning of inwffil
- inwffil                        0.007   0.2      0.010   0.3              2
 
- inwffil(call newkpt)           0.007   0.2      0.010   0.2              2

- subtotal                       0.007   0.2      0.010   0.3

 Partitioning of newkpt
- newkpt                         0.007   0.2      0.009   0.2              2
 
- newkpt(call wfconv)            0.007   0.2      0.008   0.2             43

- subtotal                       0.007   0.2      0.008   0.2

 Partitioning of newvtr
- newvtr                         0.002   0.1      0.005   0.1              4
 
- newvtr(call prcref_PMA)        0.001   0.0      0.002   0.1              4
- newvtr(aft. prcref_PMA)        0.001   0.0      0.003   0.1              4

- subtotal                       0.002   0.1      0.005   0.1

 Partitioning of  fourdp (upwards partitioning)
- fourdp                         0.003   0.1      0.004   0.1             29
 
- fourdp%(other)                 0.003   0.1      0.004   0.1             29

- subtotal                       0.003   0.1      0.004   0.1

 Partitioning of afterscfloop
- afterscfloop                   0.012   0.3      0.012   0.3              2
 
- afterscfloop(forstr)           0.012   0.3      0.012   0.3              2

- subtotal                       0.012   0.3      0.012   0.3

 Partitioning of forstr
- forstr                         0.011   0.3      0.012   0.3              1
 
- forstr(forstrnps)              0.007   0.2      0.007   0.2              1
- forstr(forces)                 0.002   0.1      0.003   0.1              1
- forstr(stress)                 0.002   0.1      0.002   0.1              1

- subtotal                       0.011   0.3      0.012   0.3

 Partitioning of forstrnps
- forstrnps                      0.007   0.2      0.007   0.2              1
 
- forstrnps(bef.loop band)       0.001   0.0      0.001   0.0             29
- forstrnps(nonlop+prep_ba       0.005   0.1      0.005   0.1            116

- subtotal                       0.007   0.2      0.007   0.2

 Partitioning of outscfcv
- outscfcv                       0.031   0.8      0.036   0.9              2
 
- outscfcv([PAW]prtden)          0.015   0.4      0.018   0.5              2
- outscfcv(prtelf)               0.015   0.4      0.015   0.4              2

- subtotal                       0.030   0.8      0.034   0.9
-
-Synchronisation (=leave_test) and MPI calls 
- communic.MPI                   0.013   0.3      0.013   0.3          19392
-
- forstrnps:synchr               0.000   0.0      0.000   0.0              2
-
- subtotal                       0.000   0.0      0.000   0.0

 Additional information
- timana(1)                      0.000   0.0      0.000   0.0              1
- total timab                    0.225   5.7      0.225   5.7         199812
- fourwf                         1.700  43.4      1.714  43.4          10721
- mklocl(2)                      0.000   0.0      0.000   0.0              1
- status                         0.000   0.0      0.000   0.0              1
- nonlop(forstr)                 0.005   0.1      0.005   0.1            116
- nonlop(total)                  0.234   6.0      0.242   6.1          10257

 timana : in multi dataset mode, the more detailed analysis is not done.

================================================================================

 Suggested references for the acknowledgment of ABINIT usage.

 The users of ABINIT have little formal obligations with respect to the ABINIT group
 (those specified in the GNU General Public License, http://www.gnu.org/copyleft/gpl.txt).
 However, it is common practice in the scientific literature,
 to acknowledge the efforts of people that have made the research possible.
 In this spirit, please find below suggested citations of work written by ABINIT developers,
 corresponding to implementations inside of ABINIT that you have used in the present run.
 Note also that it will be of great value to readers of publications presenting these results,
 to read papers enabling them to understand the theoretical formalism and details
 of the ABINIT implementation.
 For information on why they are suggested, see also http://www.abinit.org/about/?text=acknowledgments.
-
- [1] Sharing electronic structure and crystallographic data with ETSF_IO
- D. Caliste, Y. Pouillon, M.J. Verstraete, V. Olevano, X. Gonze,
- Comput. Physics Communications 179, 748 (2008).
- Comment : to be cited in case the ETSF_IO file format is used, i.e. iomode=3.
-
- [2] Recent developments in the ABINIT software package
- X.Gonze, F.Jollet, F.Abreu Araujo, D.Adams, B.Amadon, T.Applencourt,
- C.Audouze, J.-M.Beuken, J.Bieder, A.Bokhanchuk, E.Bousquet, F.Bruneval
- D.Caliste, M.Cote, F.Dahm, F.Da Pieve, M.Delaveau, M.Di Gennaro,
- B.Dorado, C.Espejo, G.Geneste, L.Genovese, A.Gerossier, M.Giantomassi,
- Y.Gillet, D.R.Hamann, L.He, G.Jomard, J.Laflamme Janssen, S.Le Roux,
- A.Levitt, A.Lherbier, F.Liu, I.Lukacevic, A.Martin, C.Martins,
- M.J.T.Oliveira, S.Ponce, Y.Pouillon, T.Rangel, G.-M.Rignanese,
- A.H.Romero, B.Rousseau, O.Rubel, A.A.Shukri, M.Stankovski, M.Torrent,
- Comment : the fourth generic paper describing the ABINIT project.
- Note that a version of this paper, that is not formatted for Computer Phys. Comm. 
- is available at http://www.abinit.org/about/ABINIT16.pdf .
- The licence allows the authors to put it on the Web.
-
- [3] ABINIT : First-principles approach of materials and nanosystem properties.
- X. Gonze, B. Amadon, P.-M. Anglade, J.-M. Beuken, F. Bottin, P. Boulanger, F. Bruneval,
- D. Caliste, R. Caracas, M. Cote, T. Deutsch, L. Genovese, Ph. Ghosez, M. Giantomassi
- S. Goedecker, D.R. Hamann, P. Hermet, F. Jollet, G. Jomard, S. Leroux, M. Mancini, S. Mazevet,
- M.J.T. Oliveira, G. Onida, Y. Pouillon, T. Rangel, G.-M. Rignanese, D. Sangalli, R. Shaltaf,
- M. Torrent, M.J. Verstraete, G. Zerah, J.W. Zwanziger
- Computer Phys. Comm. 180, 2582-2615 (2009).
- Comment : the third generic paper describing the ABINIT project.
- Note that a version of this paper, that is not formatted for Computer Phys. Comm. 
- is available at http://www.abinit.org/about/ABINIT_CPC_v10.pdf .
- The licence allows the authors to put it on the Web.
-
- [4] A brief introduction to the ABINIT software package.
- X. Gonze, G.-M. Rignanese, M. Verstraete, J.-M. Beuken, Y. Pouillon, R. Caracas, F. Jollet,
- M. Torrent, G. Zerah, M. Mikami, Ph. Ghosez, M. Veithen, J.-Y. Raty, V. Olevano, F. Bruneval,
- L. Reining, R. Godby, G. Onida, D.R. Hamann, and D.C. Allan.
- Z. Kristallogr. 220, 558-562 (2005).
- Comment : the second generic paper describing the ABINIT project. Note that this paper
- should be cited especially if you are using the GW part of ABINIT, as several authors
- of this part are not in the list of authors of the first or third paper.
- The .pdf of the latter paper is available at http://www.abinit.org/about/zfk_0505-06_558-562.pdf.
- Note that it should not redistributed (Copyright by Oldenburg Wissenshaftverlag,
- the licence allows the authors to put it on the Web).
-
- And optionally:
-
- [5] First-principles computation of material properties : the ABINIT software project. 
- X. Gonze, J.-M. Beuken, R. Caracas, F. Detraux, M. Fuchs, G.-M. Rignanese, L. Sindic,
- M. Verstraete, G. Zerah, F. Jollet, M. Torrent, A. Roy, M. Mikami, Ph. Ghosez, J.-Y. Raty, D.C. Allan.
- Computational Materials Science 25, 478-492 (2002). http://dx.doi.org/10.1016/S0927-0256(02)00325-7
- Comment : the original paper describing the ABINIT project.
-
- Proc.   0 individual time (sec): cpu=          3.9  wall=          4.0

================================================================================

 Calculation completed.
.Delivered   2 WARNINGs and   6 COMMENTs to log file.
+Overall time at end (sec) : cpu=          3.9  wall=          4.0
