
.Version 8.3.2 of ABINIT 
.(MPI version, prepared for a x86_64_darwin16.3.0_gnu6.0 computer) 

.Copyright (C) 1998-2017 ABINIT group . 
 ABINIT comes with ABSOLUTELY NO WARRANTY.
 It is free software, and you are welcome to redistribute it
 under certain conditions (GNU General Public License,
 see ~abinit/COPYING or http://www.gnu.org/copyleft/gpl.txt).

 ABINIT is a project of the Universite Catholique de Louvain,
 Corning Inc. and other collaborators, see ~abinit/doc/developers/contributors.txt .
 Please read ~abinit/doc/users/acknowledgments.html for suggested
 acknowledgments of the ABINIT effort.
 For more information, see http://www.abinit.org .

.Starting date : Wed 12 Apr 2017.
- ( at 12h04 )
  
- input  file    -> run.abi
- output file    -> run.abo
- root for input  files -> in
- root for output files -> out


 DATASET    1 : space group Fm -3 m (#225); Bravais cF (face-center cubic)
================================================================================
 Values of the parameters that define the memory need for DATASET  1.
     intxc =       0    ionmov =       0      iscf =       7    lmnmax =       6
     lnmax =       6     mgfft =      27  mpssoang =       3    mqgrid =    3001
     natom =       1  nloc_mem =       1    nspden =       2   nspinor =       1
    nsppol =       2      nsym =      48    n1xccc =    2501    ntypat =       1
    occopt =       7   xclevel =       2
-    mband =          12        mffmem =           1         mkmem =          28
       mpw =         739          nfft =       19683          nkpt =          28
================================================================================
P This job should need less than                      19.794 Mbytes of memory.
  Rough estimation (10% accuracy) of disk space for files :
_ WF disk file :      7.580 Mbytes ; DEN or POT disk file :      0.302 Mbytes.
================================================================================


 DATASET    2 : space group Fm -3 m (#225); Bravais cF (face-center cubic)
================================================================================
 Values of the parameters that define the memory need for DATASET  2.
     intxc =       0    ionmov =       0      iscf =      -2    lmnmax =       6
     lnmax =       6     mgfft =      27  mpssoang =       3    mqgrid =    3001
     natom =       1  nloc_mem =       1    nspden =       2   nspinor =       1
    nsppol =       2      nsym =      48    n1xccc =    2501    ntypat =       1
    occopt =       7   xclevel =       2
-    mband =          12        mffmem =           1         mkmem =         101
       mpw =         745          nfft =       19683          nkpt =         101
================================================================================
P This job should need less than                      35.331 Mbytes of memory.
  Rough estimation (10% accuracy) of disk space for files :
_ WF disk file :     27.558 Mbytes ; DEN or POT disk file :      0.302 Mbytes.
================================================================================

--------------------------------------------------------------------------------
------------- Echo of variables that govern the present computation ------------
--------------------------------------------------------------------------------
-
- outvars: echo of selected default values                                      
-   iomode0 =  0 , fftalg0 =112 , wfoptalg0 =  0
-
- outvars: echo of global parameters not present in the input file              
-  max_nthreads =    0
-
 -outvars: echo values of preprocessed input variables --------
-          iomode           3
            acell      6.6518359878E+00  6.6518359878E+00  6.6518359878E+00 Bohr
              amu      5.86900000E+01
             ecut      3.50000000E+01 Hartree
-          fftalg         112
           getden1          0
           getden2         -1
           iatsph1       1
           iatsph2       1
             iscf1          7
             iscf2         -2
           istwfk2       2    0    0    0    0    0    0    0    0    0
                         0    0    0    0    5    0    0    0    0    0
                         0    0    0    0    0    0    0    0    0    0
                         0    0    0    0    0    0    0    0    0    0
                         0    2    0    0    0    0    0    0    0    0
                       outvar_i_n : Printing only first  50 k-points.
              ixc          11
           jdtset        1    2
              kpt1    -8.33333333E-02 -1.66666667E-01  0.00000000E+00
                      -8.33333333E-02 -3.33333333E-01  0.00000000E+00
                      -1.66666667E-01 -2.50000000E-01  0.00000000E+00
                      -8.33333333E-02 -2.50000000E-01  8.33333333E-02
                      -8.33333333E-02  5.00000000E-01  0.00000000E+00
                      -1.66666667E-01 -4.16666667E-01  0.00000000E+00
                      -8.33333333E-02 -4.16666667E-01  8.33333333E-02
                      -2.50000000E-01 -3.33333333E-01  0.00000000E+00
                      -1.66666667E-01 -3.33333333E-01  8.33333333E-02
                      -8.33333333E-02 -3.33333333E-01  1.66666667E-01
                      -8.33333333E-02  3.33333333E-01  0.00000000E+00
                      -1.66666667E-01  4.16666667E-01  0.00000000E+00
                      -2.50000000E-01  5.00000000E-01  0.00000000E+00
                      -1.66666667E-01  5.00000000E-01  8.33333333E-02
                      -3.33333333E-01 -4.16666667E-01  0.00000000E+00
                      -2.50000000E-01 -4.16666667E-01  8.33333333E-02
                      -1.66666667E-01 -4.16666667E-01  1.66666667E-01
                      -8.33333333E-02 -4.16666667E-01  2.50000000E-01
                      -8.33333333E-02  1.66666667E-01  0.00000000E+00
                      -1.66666667E-01  2.50000000E-01  0.00000000E+00
                      -2.50000000E-01  3.33333333E-01  0.00000000E+00
                      -3.33333333E-01  4.16666667E-01  0.00000000E+00
                      -4.16666667E-01  5.00000000E-01  0.00000000E+00
                      -3.33333333E-01  5.00000000E-01  8.33333333E-02
                      -2.50000000E-01  5.00000000E-01  1.66666667E-01
                      -8.33333333E-02  0.00000000E+00  0.00000000E+00
                      -2.50000000E-01  0.00000000E+00  0.00000000E+00
                      -4.16666667E-01  0.00000000E+00  0.00000000E+00
              kpt2     0.00000000E+00  0.00000000E+00  0.00000000E+00
                       3.57142857E-02  0.00000000E+00  3.57142857E-02
                       7.14285714E-02  0.00000000E+00  7.14285714E-02
                       1.07142857E-01  0.00000000E+00  1.07142857E-01
                       1.42857143E-01  0.00000000E+00  1.42857143E-01
                       1.78571429E-01  0.00000000E+00  1.78571429E-01
                       2.14285714E-01  0.00000000E+00  2.14285714E-01
                       2.50000000E-01  0.00000000E+00  2.50000000E-01
                       2.85714286E-01  0.00000000E+00  2.85714286E-01
                       3.21428571E-01  0.00000000E+00  3.21428571E-01
                       3.57142857E-01  0.00000000E+00  3.57142857E-01
                       3.92857143E-01  0.00000000E+00  3.92857143E-01
                       4.28571429E-01  0.00000000E+00  4.28571429E-01
                       4.64285714E-01  0.00000000E+00  4.64285714E-01
                       5.00000000E-01  0.00000000E+00  5.00000000E-01
                       5.00000000E-01  3.57142857E-02  5.35714286E-01
                       5.00000000E-01  7.14285714E-02  5.71428571E-01
                       5.00000000E-01  1.07142857E-01  6.07142857E-01
                       5.00000000E-01  1.42857143E-01  6.42857143E-01
                       5.00000000E-01  1.78571429E-01  6.78571429E-01
                       5.00000000E-01  2.14285714E-01  7.14285714E-01
                       5.00000000E-01  2.50000000E-01  7.50000000E-01
                       4.75000000E-01  2.75000000E-01  7.50000000E-01
                       4.50000000E-01  3.00000000E-01  7.50000000E-01
                       4.25000000E-01  3.25000000E-01  7.50000000E-01
                       4.00000000E-01  3.50000000E-01  7.50000000E-01
                       3.75000000E-01  3.75000000E-01  7.50000000E-01
                       3.50000000E-01  3.50000000E-01  7.00000000E-01
                       3.25000000E-01  3.25000000E-01  6.50000000E-01
                       3.00000000E-01  3.00000000E-01  6.00000000E-01
                       2.75000000E-01  2.75000000E-01  5.50000000E-01
                       2.50000000E-01  2.50000000E-01  5.00000000E-01
                       2.25000000E-01  2.25000000E-01  4.50000000E-01
                       2.00000000E-01  2.00000000E-01  4.00000000E-01
                       1.75000000E-01  1.75000000E-01  3.50000000E-01
                       1.50000000E-01  1.50000000E-01  3.00000000E-01
                       1.25000000E-01  1.25000000E-01  2.50000000E-01
                       1.00000000E-01  1.00000000E-01  2.00000000E-01
                       7.50000000E-02  7.50000000E-02  1.50000000E-01
                       5.00000000E-02  5.00000000E-02  1.00000000E-01
                       2.50000000E-02  2.50000000E-02  5.00000000E-02
                       0.00000000E+00  0.00000000E+00  0.00000000E+00
                       4.16666667E-02  4.16666667E-02  4.16666667E-02
                       8.33333333E-02  8.33333333E-02  8.33333333E-02
                       1.25000000E-01  1.25000000E-01  1.25000000E-01
                       1.66666667E-01  1.66666667E-01  1.66666667E-01
                       2.08333333E-01  2.08333333E-01  2.08333333E-01
                       2.50000000E-01  2.50000000E-01  2.50000000E-01
                       2.91666667E-01  2.91666667E-01  2.91666667E-01
                       3.33333333E-01  3.33333333E-01  3.33333333E-01
                       outvar_i_n : Printing only first  50 k-points.
           kptopt1          1
           kptopt2        -11
         kptrlatt        6   -6    6     -6    6    6     -6   -6    6
          kptrlen1     3.99110159E+01
          kptrlen2     3.00000000E+01
P           mkmem1         28
P           mkmem2        101
            natom           1
           natsph1       1
           natsph2       1
            nband1         12
            nband2         12
           nbdbuf1          0
           nbdbuf2          2
           ndtset           2
           ndivsm1          0
           ndivsm2          5
            ngfft          27      27      27
             nkpt1         28
             nkpt2        101
           nspden           2
           nsppol           2
             nsym          48
           ntypat           1
              occ      1.000000  1.000000  1.000000  1.000000  1.000000  1.000000
                       1.000000  1.000000  1.000000  0.000000  0.000000  0.000000
                       1.000000  1.000000  1.000000  1.000000  1.000000  1.000000
                       1.000000  1.000000  1.000000  0.000000  0.000000  0.000000
                       1.000000  1.000000  1.000000  1.000000  1.000000  1.000000
                       1.000000  1.000000  1.000000  0.000000  0.000000  0.000000
                       1.000000  1.000000  1.000000  1.000000  1.000000  1.000000
                       1.000000  1.000000  1.000000  0.000000  0.000000  0.000000
                       1.000000  1.000000  1.000000  1.000000  1.000000  1.000000
                       1.000000  1.000000  1.000000  0.000000  0.000000  0.000000
                       1.000000  1.000000  1.000000  1.000000  1.000000  1.000000
                       1.000000  1.000000  1.000000  0.000000  0.000000  0.000000
                       1.000000  1.000000  1.000000  1.000000  1.000000  1.000000
                       1.000000  1.000000  1.000000  0.000000  0.000000  0.000000
                       1.000000  1.000000  1.000000  1.000000  1.000000  1.000000
                       1.000000  1.000000  1.000000  0.000000  0.000000  0.000000
                       1.000000  1.000000  1.000000  1.000000  1.000000  1.000000
                       1.000000  1.000000  1.000000  0.000000  0.000000  0.000000
                       1.000000  1.000000  1.000000  1.000000  1.000000  1.000000
                       1.000000  1.000000  1.000000  0.000000  0.000000  0.000000
                       1.000000  1.000000  1.000000  1.000000  1.000000  1.000000
                       1.000000  1.000000  1.000000  0.000000  0.000000  0.000000
                       1.000000  1.000000  1.000000  1.000000  1.000000  1.000000
                       1.000000  1.000000  1.000000  0.000000  0.000000  0.000000
                       1.000000  1.000000  1.000000  1.000000  1.000000  1.000000
                       1.000000  1.000000  1.000000  0.000000  0.000000  0.000000
                       1.000000  1.000000  1.000000  1.000000  1.000000  1.000000
                       1.000000  1.000000  1.000000  0.000000  0.000000  0.000000
                       1.000000  1.000000  1.000000  1.000000  1.000000  1.000000
                       1.000000  1.000000  1.000000  0.000000  0.000000  0.000000
                       1.000000  1.000000  1.000000  1.000000  1.000000  1.000000
                       1.000000  1.000000  1.000000  0.000000  0.000000  0.000000
                       1.000000  1.000000  1.000000  1.000000  1.000000  1.000000
                       1.000000  1.000000  1.000000  0.000000  0.000000  0.000000
                       1.000000  1.000000  1.000000  1.000000  1.000000  1.000000
                       1.000000  1.000000  1.000000  0.000000  0.000000  0.000000
                       1.000000  1.000000  1.000000  1.000000  1.000000  1.000000
                       1.000000  1.000000  1.000000  0.000000  0.000000  0.000000
                       1.000000  1.000000  1.000000  1.000000  1.000000  1.000000
                       1.000000  1.000000  1.000000  0.000000  0.000000  0.000000
                       1.000000  1.000000  1.000000  1.000000  1.000000  1.000000
                       1.000000  1.000000  1.000000  0.000000  0.000000  0.000000
                       1.000000  1.000000  1.000000  1.000000  1.000000  1.000000
                       1.000000  1.000000  1.000000  0.000000  0.000000  0.000000
                       1.000000  1.000000  1.000000  1.000000  1.000000  1.000000
                       1.000000  1.000000  1.000000  0.000000  0.000000  0.000000
                       1.000000  1.000000  1.000000  1.000000  1.000000  1.000000
                       1.000000  1.000000  1.000000  0.000000  0.000000  0.000000
                       1.000000  1.000000  1.000000  1.000000  1.000000  1.000000
                       1.000000  1.000000  1.000000  0.000000  0.000000  0.000000
                       1.000000  1.000000  1.000000  1.000000  1.000000  1.000000
                       1.000000  1.000000  1.000000  0.000000  0.000000  0.000000
                       1.000000  1.000000  1.000000  1.000000  1.000000  1.000000
                       1.000000  1.000000  1.000000  0.000000  0.000000  0.000000
                       1.000000  1.000000  1.000000  1.000000  1.000000  1.000000
                       1.000000  1.000000  1.000000  0.000000  0.000000  0.000000
                       1.000000  1.000000  1.000000  1.000000  1.000000  1.000000
                       1.000000  1.000000  1.000000  0.000000  0.000000  0.000000
                       1.000000  1.000000  1.000000  1.000000  1.000000  1.000000
                       1.000000  1.000000  1.000000  0.000000  0.000000  0.000000
                       1.000000  1.000000  1.000000  1.000000  1.000000  1.000000
                       1.000000  1.000000  1.000000  0.000000  0.000000  0.000000
                       1.000000  1.000000  1.000000  1.000000  1.000000  1.000000
                       1.000000  1.000000  1.000000  0.000000  0.000000  0.000000
                       1.000000  1.000000  1.000000  1.000000  1.000000  1.000000
                       1.000000  1.000000  1.000000  0.000000  0.000000  0.000000
                       1.000000  1.000000  1.000000  1.000000  1.000000  1.000000
                       1.000000  1.000000  1.000000  0.000000  0.000000  0.000000
                       1.000000  1.000000  1.000000  1.000000  1.000000  1.000000
                       1.000000  1.000000  1.000000  0.000000  0.000000  0.000000
                       1.000000  1.000000  1.000000  1.000000  1.000000  1.000000
                       1.000000  1.000000  1.000000  0.000000  0.000000  0.000000
                       1.000000  1.000000  1.000000  1.000000  1.000000  1.000000
                       1.000000  1.000000  1.000000  0.000000  0.000000  0.000000
                       1.000000  1.000000  1.000000  1.000000  1.000000  1.000000
                       1.000000  1.000000  1.000000  0.000000  0.000000  0.000000
                       1.000000  1.000000  1.000000  1.000000  1.000000  1.000000
                       1.000000  1.000000  1.000000  0.000000  0.000000  0.000000
                       1.000000  1.000000  1.000000  1.000000  1.000000  1.000000
                       1.000000  1.000000  1.000000  0.000000  0.000000  0.000000
                       1.000000  1.000000  1.000000  1.000000  1.000000  1.000000
                       1.000000  1.000000  1.000000  0.000000  0.000000  0.000000
                       1.000000  1.000000  1.000000  1.000000  1.000000  1.000000
                       1.000000  1.000000  1.000000  0.000000  0.000000  0.000000
                       1.000000  1.000000  1.000000  1.000000  1.000000  1.000000
                       1.000000  1.000000  1.000000  0.000000  0.000000  0.000000
                       1.000000  1.000000  1.000000  1.000000  1.000000  1.000000
                       1.000000  1.000000  1.000000  0.000000  0.000000  0.000000
                       1.000000  1.000000  1.000000  1.000000  1.000000  1.000000
                       1.000000  1.000000  1.000000  0.000000  0.000000  0.000000
                       1.000000  1.000000  1.000000  1.000000  1.000000  1.000000
                       1.000000  1.000000  1.000000  0.000000  0.000000  0.000000
                       1.000000  1.000000  1.000000  1.000000  1.000000  1.000000
                       1.000000  1.000000  1.000000  0.000000  0.000000  0.000000
                       1.000000  1.000000  1.000000  1.000000  1.000000  1.000000
                       1.000000  1.000000  1.000000  0.000000  0.000000  0.000000
                       1.000000  1.000000  1.000000  1.000000  1.000000  1.000000
                       1.000000  1.000000  1.000000  0.000000  0.000000  0.000000
                       1.000000  1.000000  1.000000  1.000000  1.000000  1.000000
                       1.000000  1.000000  1.000000  0.000000  0.000000  0.000000
                       1.000000  1.000000  1.000000  1.000000  1.000000  1.000000
                       1.000000  1.000000  1.000000  0.000000  0.000000  0.000000
                       1.000000  1.000000  1.000000  1.000000  1.000000  1.000000
                       1.000000  1.000000  1.000000  0.000000  0.000000  0.000000
                       1.000000  1.000000  1.000000  1.000000  1.000000  1.000000
                       1.000000  1.000000  1.000000  0.000000  0.000000  0.000000
                       1.000000  1.000000  1.000000  1.000000  1.000000  1.000000
                       1.000000  1.000000  1.000000  0.000000  0.000000  0.000000
                       1.000000  1.000000  1.000000  1.000000  1.000000  1.000000
                       1.000000  1.000000  1.000000  0.000000  0.000000  0.000000
                       1.000000  1.000000  1.000000  1.000000  1.000000  1.000000
                       1.000000  1.000000  1.000000  0.000000  0.000000  0.000000
           occopt           7
           prtdos           3
          prtdosm1          0
          prtdosm2          1
           prtpot1          1
           prtpot2          0
           prtvha1          1
           prtvha2          0
          prtvhxc           1
           prtvxc           1
            rprim      0.0000000000E+00  5.0000000000E-01  5.0000000000E-01
                       5.0000000000E-01  0.0000000000E+00  5.0000000000E-01
                       5.0000000000E-01  5.0000000000E-01  0.0000000000E+00
           shiftk      5.00000000E-01  5.00000000E-01  5.00000000E-01
          spgroup         225
           spinat      0.0000000000E+00  0.0000000000E+00  4.0000000000E+00
           symrel      1  0  0   0  1  0   0  0  1      -1  0  0   0 -1  0   0  0 -1
                       0 -1  1   0 -1  0   1 -1  0       0  1 -1   0  1  0  -1  1  0
                      -1  0  0  -1  0  1  -1  1  0       1  0  0   1  0 -1   1 -1  0
                       0  1 -1   1  0 -1   0  0 -1       0 -1  1  -1  0  1   0  0  1
                      -1  0  0  -1  1  0  -1  0  1       1  0  0   1 -1  0   1  0 -1
                       0 -1  1   1 -1  0   0 -1  0       0  1 -1  -1  1  0   0  1  0
                       1  0  0   0  0  1   0  1  0      -1  0  0   0  0 -1   0 -1  0
                       0  1 -1   0  0 -1   1  0 -1       0 -1  1   0  0  1  -1  0  1
                      -1  0  1  -1  1  0  -1  0  0       1  0 -1   1 -1  0   1  0  0
                       0 -1  0   1 -1  0   0 -1  1       0  1  0  -1  1  0   0  1 -1
                       1  0 -1   0  0 -1   0  1 -1      -1  0  1   0  0  1   0 -1  1
                       0  1  0   0  0  1   1  0  0       0 -1  0   0  0 -1  -1  0  0
                       1  0 -1   0  1 -1   0  0 -1      -1  0  1   0 -1  1   0  0  1
                       0 -1  0   0 -1  1   1 -1  0       0  1  0   0  1 -1  -1  1  0
                      -1  0  1  -1  0  0  -1  1  0       1  0 -1   1  0  0   1 -1  0
                       0  1  0   1  0  0   0  0  1       0 -1  0  -1  0  0   0  0 -1
                       0  0 -1   0  1 -1   1  0 -1       0  0  1   0 -1  1  -1  0  1
                       1 -1  0   0 -1  1   0 -1  0      -1  1  0   0  1 -1   0  1  0
                       0  0  1   1  0  0   0  1  0       0  0 -1  -1  0  0   0 -1  0
                      -1  1  0  -1  0  0  -1  0  1       1 -1  0   1  0  0   1  0 -1
                       0  0  1   0  1  0   1  0  0       0  0 -1   0 -1  0  -1  0  0
                       1 -1  0   0 -1  0   0 -1  1      -1  1  0   0  1  0   0  1 -1
                       0  0 -1   1  0 -1   0  1 -1       0  0  1  -1  0  1   0 -1  1
                      -1  1  0  -1  0  1  -1  0  0       1 -1  0   1  0 -1   1  0  0
           tolvrs1     1.00000000E-12
           tolvrs2     0.00000000E+00
           tolwfr1     0.00000000E+00
           tolwfr2     1.00000000E-16
           tsmear      7.50000000E-03 Hartree
            typat      1
              wtk1       0.02778    0.02778    0.02778    0.05556    0.02778    0.02778
                         0.05556    0.02778    0.05556    0.05556    0.02778    0.02778
                         0.02778    0.05556    0.02778    0.05556    0.05556    0.05556
                         0.02778    0.02778    0.02778    0.02778    0.02778    0.05556
                         0.05556    0.00926    0.00926    0.00926
              wtk2       1.00000    1.00000    1.00000    1.00000    1.00000    1.00000
                         1.00000    1.00000    1.00000    1.00000    1.00000    1.00000
                         1.00000    1.00000    1.00000    1.00000    1.00000    1.00000
                         1.00000    1.00000    1.00000    1.00000    1.00000    1.00000
                         1.00000    1.00000    1.00000    1.00000    1.00000    1.00000
                         1.00000    1.00000    1.00000    1.00000    1.00000    1.00000
                         1.00000    1.00000    1.00000    1.00000    1.00000    1.00000
                         1.00000    1.00000    1.00000    1.00000    1.00000    1.00000
                         1.00000    1.00000
                       outvars : Printing only first  50 k-points.
            znucl       28.00000

================================================================================

 chkinp: Checking input parameters for consistency, jdtset=   1.

 chkinp: Checking input parameters for consistency, jdtset=   2.

================================================================================
== DATASET  1 ==================================================================
-   nproc =    1

 Exchange-correlation functional for the present dataset will be:
  GGA: Perdew-Burke-Ernzerhof functional - ixc=11
 Citation for XC functional:
  J.P.Perdew, K.Burke, M.Ernzerhof, PRL 77, 3865 (1996)

 Real(R)+Recip(G) space primitive vectors, cartesian coordinates (Bohr,Bohr^-1):
 R(1)=  0.0000000  3.3259180  3.3259180  G(1)= -0.1503344  0.1503344  0.1503344
 R(2)=  3.3259180  0.0000000  3.3259180  G(2)=  0.1503344 -0.1503344  0.1503344
 R(3)=  3.3259180  3.3259180  0.0000000  G(3)=  0.1503344  0.1503344 -0.1503344
 Unit cell volume ucvol=  7.3580817E+01 bohr^3
 Angles (23,13,12)=  6.00000000E+01  6.00000000E+01  6.00000000E+01 degrees

 getcut: wavevector=  0.0000  0.0000  0.0000  ngfft=  27  27  27
         ecut(hartree)=     35.000   => boxcut(ratio)=   2.07869

--- Pseudopotential description ------------------------------------------------
- pspini: atom type   1  psp file is /Users/gmatteo/git_repos/abipy/abipy/data/pseudos/Ni-sp.psp8
- pspatm: opening atomic psp file    /Users/gmatteo/git_repos/abipy/abipy/data/pseudos/Ni-sp.psp8
- Ni    ONCVPSP  r_core=  1.26  1.35  1.66
- 28.00000  18.00000    151103                znucl, zion, pspdat
    8   11    2    4       600   0.00000      pspcod,pspxc,lmax,lloc,mmax,r2well
    5.99000000000000    3.00000000000000    0.00000000000000   rchrg,fchrg,qchrg
     nproj     2     2     2
extension_switch     1
 pspatm: epsatm=   19.55809693
         --- l  ekb(1:nproj) -->
             0    6.065038   -0.229627
             1   -2.983278   -1.433038
             2   -7.377706   -2.705200
 pspatm: atomic psp has been read  and splines computed

   3.52045745E+02                                ecore*ucvol(ha*bohr**3)
--------------------------------------------------------------------------------

_setup2: Arith. and geom. avg. npw (full set) are     727.509     727.500

================================================================================

     iter   Etot(hartree)     deltaE(h) residm    vres2    magn
 ETOT  1  -167.62596583720    -1.68E+02 3.79E-01 5.59E+01 1.180
 ETOT  2  -167.73213189075    -1.06E-01 1.17E-02 2.10E+02 0.705
 ETOT  3  -167.77567660029    -4.35E-02 2.02E-03 7.55E-01 0.751
 ETOT  4  -167.77615173825    -4.75E-04 6.16E-04 1.22E-01 0.697
 ETOT  5  -167.77620766961    -5.59E-05 7.94E-04 3.89E-02 0.686
 ETOT  6  -167.77624229354    -3.46E-05 3.93E-04 4.20E-03 0.666
 ETOT  7  -167.77624759652    -5.30E-06 3.36E-04 3.08E-04 0.653
 ETOT  8  -167.77624783884    -2.42E-07 2.81E-04 2.96E-06 0.650
 ETOT  9  -167.77624784025    -1.40E-09 1.86E-04 5.13E-07 0.650
 ETOT 10  -167.77624784039    -1.49E-10 1.43E-04 1.02E-08 0.650
 ETOT 11  -167.77624784040    -2.53E-12 1.02E-04 3.23E-10 0.650
 ETOT 12  -167.77624784040     4.83E-13 6.64E-05 2.28E-11 0.650
 ETOT 13  -167.77624784040    -4.01E-12 5.20E-05 1.25E-13 0.650

 At SCF step   13       vres2   =  1.25E-13 < tolvrs=  1.00E-12 =>converged.

 Cartesian components of stress tensor (hartree/bohr^3)
  sigma(1 1)=  4.04888570E-03  sigma(3 2)=  0.00000000E+00
  sigma(2 2)=  4.04888570E-03  sigma(3 1)=  0.00000000E+00
  sigma(3 3)=  4.04888570E-03  sigma(2 1)=  0.00000000E+00

 Integrated electronic and magnetization densities in atomic spheres:
 ---------------------------------------------------------------------
 Note: Diff(up-dn) is a rough approximation of local magnetic moment
 Atom    Radius    up_density   dn_density  Total(up+dn)  Diff(up-dn)
    1   2.00000     8.514004     7.812298     16.326302     0.701706
 ---------------------------------------------------------------------
  Sum:              8.514004     7.812298     16.326302     0.701706
 Total magnetization (from the atomic spheres):             0.701706
 Total magnetization (exact up - dn):                       0.650144
================================================================================

 ----iterations are completed or convergence reached----

 Mean square residual over all n,k,spin=   1.1495E-07; max=  5.2017E-05
 reduced coordinates (array xred) for    1 atoms
       0.000000000000      0.000000000000      0.000000000000
 rms dE/dt=  0.0000E+00; max dE/dt=  0.0000E+00; dE/dt below (all hartree)
    1       0.000000000000      0.000000000000      0.000000000000

 cartesian coordinates (angstrom) at end:
    1      0.00000000000000     0.00000000000000     0.00000000000000

 cartesian forces (hartree/bohr) at end:
    1     -0.00000000000000    -0.00000000000000    -0.00000000000000
 frms,max,avg= 0.0000000E+00 0.0000000E+00   0.000E+00  0.000E+00  0.000E+00 h/b

 cartesian forces (eV/Angstrom) at end:
    1     -0.00000000000000    -0.00000000000000    -0.00000000000000
 frms,max,avg= 0.0000000E+00 0.0000000E+00   0.000E+00  0.000E+00  0.000E+00 e/A
 length scales=  6.651835987757  6.651835987757  6.651835987757 bohr
              =  3.520000000000  3.520000000000  3.520000000000 angstroms
 prteigrs : about to open file out_DS1_EIG
 Fermi (or HOMO) energy (hartree) =   0.41510   Average Vxc (hartree)=  -0.51095
 Magnetization (Bohr magneton)=  6.50143904E-01
 Total spin up =  9.32507195E+00   Total spin down =  8.67492805E+00
 Eigenvalues (hartree) for nkpt=  28  k points, SPIN UP:
 kpt#   1, nband= 12, wtk=  0.02778, kpt= -0.0833 -0.1667  0.0000 (reduced coord)
  -3.40340   -1.94188   -1.94096   -1.94090    0.11812    0.31328    0.33192    0.33228
   0.35949    0.37104    1.15651    1.27898
      occupation numbers for kpt#   1
   1.00000    1.00000    1.00000    1.00000    1.00000    1.00000    1.00000    1.00000
   1.00000    1.00000    0.00000    0.00000
 prteigrs : prtvol=0 or 1, do not print more k-points.

 Eigenvalues (hartree) for nkpt=  28  k points, SPIN DOWN:
 kpt#   1, nband= 12, wtk=  0.02778, kpt= -0.0833 -0.1667  0.0000 (reduced coord)
  -3.37590   -1.91201   -1.91106   -1.91099    0.11564    0.34216    0.36200    0.36246
   0.38410    0.39639    1.15787    1.27589
      occupation numbers for kpt#   1
   1.00000    1.00000    1.00000    1.00000    1.00000    1.00000    1.00000    1.00000
   1.00000    0.99979    0.00000    0.00000
 prteigrs : prtvol=0 or 1, do not print more k-points.


--------------------------------------------------------------------------------
 Components of total free energy (in Hartree) :

    Kinetic energy  =  7.88521042749997E+01
    Hartree energy  =  4.66091691527607E+01
    XC energy       = -2.14135236285662E+01
    Ewald energy    = -1.11660548662572E+02
    PspCore energy  =  4.78447724408101E+00
    Loc. psp. energy= -1.38532514322097E+02
    NL   psp  energy= -2.64140668656098E+01
    >>>>> Internal E= -1.67774902807004E+02

    -kT*entropy     = -1.34503339706221E-03
    >>>>>>>>> Etotal= -1.67776247840401E+02

 Other information on the energy :
    Total energy(eV)= -4.56542388257564E+03 ; Band energy (Ha)=  -1.5060708400E+01
--------------------------------------------------------------------------------

 Cartesian components of stress tensor (hartree/bohr^3)
  sigma(1 1)=  4.04888570E-03  sigma(3 2)=  0.00000000E+00
  sigma(2 2)=  4.04888570E-03  sigma(3 1)=  0.00000000E+00
  sigma(3 3)=  4.04888570E-03  sigma(2 1)=  0.00000000E+00

-Cartesian components of stress tensor (GPa)         [Pressure= -1.1912E+02 GPa]
- sigma(1 1)=  1.19122310E+02  sigma(3 2)=  0.00000000E+00
- sigma(2 2)=  1.19122310E+02  sigma(3 1)=  0.00000000E+00
- sigma(3 3)=  1.19122310E+02  sigma(2 1)=  0.00000000E+00

================================================================================
== DATASET  2 ==================================================================
-   nproc =    1

 mkfilename : getden/=0, take file _DEN from output of DATASET   1.

 Exchange-correlation functional for the present dataset will be:
  GGA: Perdew-Burke-Ernzerhof functional - ixc=11
 Citation for XC functional:
  J.P.Perdew, K.Burke, M.Ernzerhof, PRL 77, 3865 (1996)

 Real(R)+Recip(G) space primitive vectors, cartesian coordinates (Bohr,Bohr^-1):
 R(1)=  0.0000000  3.3259180  3.3259180  G(1)= -0.1503344  0.1503344  0.1503344
 R(2)=  3.3259180  0.0000000  3.3259180  G(2)=  0.1503344 -0.1503344  0.1503344
 R(3)=  3.3259180  3.3259180  0.0000000  G(3)=  0.1503344  0.1503344 -0.1503344
 Unit cell volume ucvol=  7.3580817E+01 bohr^3
 Angles (23,13,12)=  6.00000000E+01  6.00000000E+01  6.00000000E+01 degrees

 getcut: wavevector=  0.0000  0.0000  0.0000  ngfft=  27  27  27
         ecut(hartree)=     35.000   => boxcut(ratio)=   2.07869
--------------------------------------------------------------------------------


================================================================================
 prteigrs : about to open file out_DS2_EIG

 SPIN UP channel
 Non-SCF case, kpt    1 (  0.00000  0.00000  0.00000), residuals and eigenvalues=
  8.86E-17  7.27E-17  1.78E-17  5.62E-17  2.96E-17  2.66E-17  6.93E-17  8.27E-17
  6.04E-17  4.59E-17  2.54E-16  1.59E-10
 -3.4037E+00 -1.9406E+00 -1.9406E+00 -1.9406E+00  8.2383E-02  3.2335E-01
  3.2335E-01  3.2335E-01  3.6759E-01  3.6759E-01  1.2819E+00  1.4245E+00
  prteigrs : nnsclo,ikpt=   30    1 max resid (incl. the buffer)=  1.58761E-10
 Non-SCF case, kpt    2 (  0.03571  0.00000  0.03571), residuals and eigenvalues=
  3.63E-17  3.94E-17  2.55E-17  4.43E-17  2.14E-17  4.98E-17  3.79E-17  6.75E-17
  4.28E-17  7.22E-17  6.60E-14  5.97E-05
 -3.4037E+00 -1.9407E+00 -1.9406E+00 -1.9406E+00  8.4838E-02  3.2248E-01
  3.2406E-01  3.2406E-01  3.6681E-01  3.6792E-01  1.2763E+00  1.4008E+00
  prteigrs : nnsclo,ikpt=   30    2 max resid (incl. the buffer)=  5.96792E-05
 Non-SCF case, kpt    3 (  0.07143  0.00000  0.07143), residuals and eigenvalues=
  5.34E-17  9.78E-18  1.30E-17  6.21E-17  5.14E-17  2.16E-17  4.73E-17  8.53E-17
  8.30E-17  1.74E-17  2.21E-11  6.99E-05
 -3.4036E+00 -1.9411E+00 -1.9407E+00 -1.9407E+00  9.2141E-02  3.1992E-01
  3.2599E-01  3.2599E-01  3.6414E-01  3.6887E-01  1.2619E+00  1.3555E+00
  prteigrs : nnsclo,ikpt=   30    3 max resid (incl. the buffer)=  6.99476E-05
 Non-SCF case, kpt    4 (  0.10714  0.00000  0.10714), residuals and eigenvalues=
  4.25E-17  3.17E-17  9.47E-17  1.83E-17  3.31E-17  6.08E-17  3.65E-17  9.69E-17
  1.71E-17  1.24E-17  1.14E-07  9.03E-06
 -3.4035E+00 -1.9413E+00 -1.9409E+00 -1.9409E+00  1.0415E-01  3.1591E-01
  3.2981E-01  3.2981E-01  3.6059E-01  3.7023E-01  1.2435E+00  1.3061E+00
  prteigrs : nnsclo,ikpt=   30    4 max resid (incl. the buffer)=  9.02556E-06
 Non-SCF case, kpt    5 (  0.14286  0.00000  0.14286), residuals and eigenvalues=
  8.08E-17  4.43E-17  1.16E-17  1.43E-17  9.14E-17  3.25E-17  3.50E-17  8.28E-17
  7.13E-17  4.66E-17  7.47E-07  1.43E-07
 -3.4034E+00 -1.9418E+00 -1.9410E+00 -1.9410E+00  1.2053E-01  3.1054E-01
  3.3488E-01  3.3488E-01  3.5573E-01  3.7235E-01  1.2246E+00  1.2570E+00
  prteigrs : nnsclo,ikpt=   30    5 max resid (incl. the buffer)=  7.46793E-07
 Non-SCF case, kpt    6 (  0.17857  0.00000  0.17857), residuals and eigenvalues=
  6.42E-17  5.21E-17  3.91E-17  1.68E-17  2.39E-17  3.17E-17  4.40E-17  6.20E-17
  3.49E-17  5.60E-17  3.27E-06  4.54E-09
 -3.4032E+00 -1.9429E+00 -1.9412E+00 -1.9412E+00  1.4069E-01  3.0422E-01
  3.4052E-01  3.4052E-01  3.5019E-01  3.7513E-01  1.2082E+00  1.2084E+00
  prteigrs : nnsclo,ikpt=   30    6 max resid (incl. the buffer)=  3.27009E-06
 Non-SCF case, kpt    7 (  0.21429  0.00000  0.21429), residuals and eigenvalues=
  4.58E-17  2.63E-17  4.14E-17  1.02E-17  2.36E-17  4.13E-17  7.64E-17  6.61E-17
  8.67E-17  5.20E-17  1.20E-06  2.04E-05
 -3.4031E+00 -1.9435E+00 -1.9416E+00 -1.9416E+00  1.6385E-01  2.9721E-01
  3.4663E-01  3.4724E-01  3.4724E-01  3.7783E-01  1.1627E+00  1.1628E+00
  prteigrs : nnsclo,ikpt=   30    7 max resid (incl. the buffer)=  2.04240E-05
 Non-SCF case, kpt    8 (  0.25000  0.00000  0.25000), residuals and eigenvalues=
  9.39E-17  1.51E-17  1.32E-17  1.11E-17  2.61E-17  2.26E-17  4.56E-17  3.76E-17
  3.98E-17  4.62E-17  6.24E-08  1.44E-06
 -3.4029E+00 -1.9445E+00 -1.9420E+00 -1.9420E+00  1.8827E-01  2.8973E-01
  3.4518E-01  3.5429E-01  3.5429E-01  3.8039E-01  1.1194E+00  1.1194E+00
  prteigrs : nnsclo,ikpt=   30    8 max resid (incl. the buffer)=  1.44253E-06
 Non-SCF case, kpt    9 (  0.28571  0.00000  0.28571), residuals and eigenvalues=
  7.56E-17  9.28E-17  1.40E-17  3.39E-17  9.82E-18  5.83E-17  5.44E-17  3.53E-17
  5.72E-17  3.18E-17  1.14E-10  4.16E-06
 -3.4027E+00 -1.9453E+00 -1.9423E+00 -1.9423E+00  2.1110E-01  2.8297E-01
  3.4962E-01  3.6259E-01  3.6259E-01  3.8339E-01  1.0802E+00  1.0805E+00
  prteigrs : nnsclo,ikpt=   30    9 max resid (incl. the buffer)=  4.16227E-06
 Non-SCF case, kpt   10 (  0.32143  0.00000  0.32143), residuals and eigenvalues=
  6.05E-17  7.12E-17  6.94E-17  5.17E-17  2.68E-17  6.10E-17  3.54E-17  8.41E-17
  2.17E-17  5.23E-17  1.16E-06  2.38E-14
 -3.4025E+00 -1.9459E+00 -1.9426E+00 -1.9426E+00  2.2863E-01  2.7633E-01
  3.6383E-01  3.7075E-01  3.7075E-01  3.8617E-01  1.0113E+00  1.0452E+00
  prteigrs : nnsclo,ikpt=   30   10 max resid (incl. the buffer)=  1.15766E-06
 Non-SCF case, kpt   11 (  0.35714  0.00000  0.35714), residuals and eigenvalues=
  3.66E-17  7.17E-17  1.53E-17  3.72E-17  2.65E-17  9.42E-17  4.36E-17  6.07E-17
  2.26E-17  8.04E-17  9.93E-09  1.06E-12
 -3.4024E+00 -1.9466E+00 -1.9428E+00 -1.9428E+00  2.3855E-01  2.7048E-01
  3.7855E-01  3.7855E-01  3.8867E-01  3.8870E-01  9.4081E-01  1.0150E+00
  prteigrs : nnsclo,ikpt=   30   11 max resid (incl. the buffer)=  9.93283E-09
 Non-SCF case, kpt   12 (  0.39286  0.00000  0.39286), residuals and eigenvalues=
  5.53E-17  1.80E-17  9.44E-17  2.42E-17  6.88E-17  9.46E-17  9.00E-17  3.79E-17
  5.17E-17  4.05E-17  2.34E-12  3.66E-17
 -3.4023E+00 -1.9474E+00 -1.9432E+00 -1.9432E+00  2.4189E-01  2.6558E-01
  3.8516E-01  3.8516E-01  3.9006E-01  4.2214E-01  8.7314E-01  9.9028E-01
  prteigrs : nnsclo,ikpt=   30   12 max resid (incl. the buffer)=  2.33873E-12
 Non-SCF case, kpt   13 (  0.42857  0.00000  0.42857), residuals and eigenvalues=
  8.83E-17  2.42E-17  3.13E-17  5.63E-17  3.37E-17  1.60E-17  9.98E-17  7.53E-17
  5.77E-17  6.40E-18  2.92E-12  1.40E-15
 -3.4022E+00 -1.9479E+00 -1.9435E+00 -1.9435E+00  2.4266E-01  2.6180E-01
  3.9034E-01  3.9034E-01  3.9155E-01  4.5871E-01  8.1413E-01  9.7202E-01
  prteigrs : nnsclo,ikpt=   30   13 max resid (incl. the buffer)=  2.92183E-12
 Non-SCF case, kpt   14 (  0.46429  0.00000  0.46429), residuals and eigenvalues=
  3.97E-17  2.58E-17  5.05E-17  6.56E-17  9.82E-17  3.63E-17  9.16E-17  5.81E-17
  7.77E-17  1.19E-17  3.35E-15  1.63E-16
 -3.4022E+00 -1.9482E+00 -1.9438E+00 -1.9438E+00  2.4238E-01  2.5898E-01
  3.9240E-01  3.9365E-01  3.9365E-01  4.8998E-01  7.6961E-01  9.6078E-01
  prteigrs : nnsclo,ikpt=   30   14 max resid (incl. the buffer)=  3.34825E-15
 Non-SCF case, kpt   15 (  0.50000  0.00000  0.50000), residuals and eigenvalues=
  4.93E-17  2.11E-17  5.00E-17  4.80E-17  8.73E-17  9.99E-17  6.68E-17  6.49E-17
  5.10E-17  1.85E-17  2.19E-15  9.30E-17
 -3.4022E+00 -1.9483E+00 -1.9439E+00 -1.9439E+00  2.4218E-01  2.5822E-01
  3.9273E-01  3.9484E-01  3.9484E-01  5.0324E-01  7.5206E-01  9.5702E-01
  prteigrs : nnsclo,ikpt=   30   15 max resid (incl. the buffer)=  2.18876E-15
 Non-SCF case, kpt   16 (  0.50000  0.03571  0.53571), residuals and eigenvalues=
  9.38E-17  5.58E-17  3.20E-17  9.00E-17  2.43E-17  7.41E-17  5.63E-17  6.38E-17
  2.51E-17  1.47E-17  7.10E-14  9.63E-06
 -3.4022E+00 -1.9482E+00 -1.9437E+00 -1.9437E+00  2.4358E-01  2.5963E-01
  3.8939E-01  3.9182E-01  3.9497E-01  5.1089E-01  7.5298E-01  9.4201E-01
  prteigrs : nnsclo,ikpt=   30   16 max resid (incl. the buffer)=  9.62533E-06
 Non-SCF case, kpt   17 (  0.50000  0.07143  0.57143), residuals and eigenvalues=
  9.65E-17  1.40E-17  5.51E-17  7.17E-17  4.34E-17  3.96E-17  2.25E-17  4.74E-17
  5.06E-17  1.64E-17  1.58E-13  1.29E-05
 -3.4021E+00 -1.9480E+00 -1.9439E+00 -1.9434E+00  2.4732E-01  2.6229E-01
  3.7649E-01  3.8919E-01  3.9517E-01  5.3067E-01  7.5494E-01  9.0757E-01
  prteigrs : nnsclo,ikpt=   30   17 max resid (incl. the buffer)=  1.28645E-05
 Non-SCF case, kpt   18 (  0.50000  0.10714  0.60714), residuals and eigenvalues=
  7.87E-17  1.69E-17  2.25E-17  2.46E-17  3.80E-17  9.22E-17  5.57E-17  4.74E-17
  3.03E-17  3.28E-17  2.00E-13  6.61E-07
 -3.4021E+00 -1.9476E+00 -1.9441E+00 -1.9436E+00  2.5297E-01  2.6631E-01
  3.6017E-01  3.8381E-01  3.9556E-01  5.5739E-01  7.5784E-01  8.6598E-01
  prteigrs : nnsclo,ikpt=   30   18 max resid (incl. the buffer)=  6.60807E-07
 Non-SCF case, kpt   19 (  0.50000  0.14286  0.64286), residuals and eigenvalues=
  3.13E-17  1.11E-17  8.74E-17  6.97E-17  7.80E-17  3.85E-17  1.85E-17  7.33E-17
  2.39E-17  3.05E-17  3.33E-14  1.43E-11
 -3.4021E+00 -1.9473E+00 -1.9446E+00 -1.9438E+00  2.5998E-01  2.7181E-01
  3.4338E-01  3.7772E-01  3.9539E-01  5.8829E-01  7.6253E-01  8.2253E-01
  prteigrs : nnsclo,ikpt=   30   19 max resid (incl. the buffer)=  1.42780E-11
 Non-SCF case, kpt   20 (  0.50000  0.17857  0.67857), residuals and eigenvalues=
  4.43E-17  3.57E-17  1.74E-17  1.37E-17  1.35E-17  7.34E-17  6.09E-17  9.26E-17
  3.92E-17  7.57E-17  3.71E-10  5.51E-17
 -3.4021E+00 -1.9469E+00 -1.9450E+00 -1.9435E+00  2.6708E-01  2.7952E-01
  3.2762E-01  3.7198E-01  3.9532E-01  6.2254E-01  7.6880E-01  7.7932E-01
  prteigrs : nnsclo,ikpt=   30   20 max resid (incl. the buffer)=  3.70721E-10
 Non-SCF case, kpt   21 (  0.50000  0.21429  0.71429), residuals and eigenvalues=
  7.31E-17  1.01E-17  5.69E-17  6.76E-17  3.21E-17  2.10E-17  2.07E-17  3.53E-17
  2.81E-17  9.62E-17  8.40E-17  9.21E-15
 -3.4021E+00 -1.9464E+00 -1.9454E+00 -1.9435E+00  2.7275E-01  2.8900E-01
  3.1322E-01  3.6693E-01  3.9528E-01  6.5894E-01  7.3759E-01  7.7598E-01
  prteigrs : nnsclo,ikpt=   30   21 max resid (incl. the buffer)=  9.20956E-15
 Non-SCF case, kpt   22 (  0.50000  0.25000  0.75000), residuals and eigenvalues=
  7.34E-17  7.18E-17  2.60E-17  4.63E-17  9.88E-17  6.59E-17  7.30E-17  4.36E-17
  4.97E-17  2.33E-17  9.50E-17  2.76E-12
 -3.4021E+00 -1.9459E+00 -1.9459E+00 -1.9436E+00  2.7501E-01  3.0040E-01
  3.0040E-01  3.6435E-01  3.9529E-01  6.9740E-01  6.9740E-01  7.7986E-01
  prteigrs : nnsclo,ikpt=   30   22 max resid (incl. the buffer)=  2.75677E-12
 Non-SCF case, kpt   23 (  0.47500  0.27500  0.75000), residuals and eigenvalues=
  3.51E-17  2.45E-17  3.14E-17  2.63E-17  6.00E-17  8.54E-17  2.01E-17  6.02E-17
  8.12E-17  7.27E-17  1.86E-15  2.35E-13
 -3.4022E+00 -1.9463E+00 -1.9457E+00 -1.9436E+00  2.7429E-01  2.9182E-01
  3.0910E-01  3.6518E-01  3.9451E-01  6.7200E-01  7.0782E-01  7.8428E-01
  prteigrs : nnsclo,ikpt=   30   23 max resid (incl. the buffer)=  2.34859E-13
 Non-SCF case, kpt   24 (  0.45000  0.30000  0.75000), residuals and eigenvalues=
  4.72E-17  2.29E-17  1.59E-17  4.98E-17  7.94E-17  5.82E-17  7.62E-17  6.51E-17
  8.82E-17  3.19E-17  1.48E-16  3.97E-16
 -3.4021E+00 -1.9465E+00 -1.9454E+00 -1.9433E+00  2.7287E-01  2.8480E-01
  3.1832E-01  3.6806E-01  3.9289E-01  6.5142E-01  6.9994E-01  7.8377E-01
  prteigrs : nnsclo,ikpt=   30   24 max resid (incl. the buffer)=  3.97265E-16
 Non-SCF case, kpt   25 (  0.42500  0.32500  0.75000), residuals and eigenvalues=
  4.66E-17  6.33E-17  1.12E-17  3.25E-17  5.28E-17  9.57E-17  4.08E-17  3.48E-17
  7.50E-17  9.88E-17  6.07E-17  3.75E-15
 -3.4021E+00 -1.9467E+00 -1.9453E+00 -1.9432E+00  2.7050E-01  2.7983E-01
  3.2665E-01  3.7046E-01  3.8998E-01  6.3604E-01  6.9015E-01  7.8104E-01
  prteigrs : nnsclo,ikpt=   30   25 max resid (incl. the buffer)=  3.74999E-15
 Non-SCF case, kpt   26 (  0.40000  0.35000  0.75000), residuals and eigenvalues=
  7.88E-17  8.08E-17  2.48E-17  4.59E-17  6.48E-17  1.66E-17  6.90E-17  8.54E-17
  7.62E-17  1.34E-17  7.31E-17  9.87E-16
 -3.4022E+00 -1.9468E+00 -1.9452E+00 -1.9431E+00  2.6805E-01  2.7743E-01
  3.3299E-01  3.7227E-01  3.8742E-01  6.2669E-01  6.8330E-01  7.7901E-01
  prteigrs : nnsclo,ikpt=   30   26 max resid (incl. the buffer)=  9.87432E-16
 Non-SCF case, kpt   27 (  0.37500  0.37500  0.75000), residuals and eigenvalues=
  2.97E-17  3.66E-17  6.70E-17  8.49E-17  7.41E-17  6.14E-17  4.33E-17  3.81E-17
  3.63E-17  7.86E-17  3.89E-17  1.87E-16
 -3.4022E+00 -1.9469E+00 -1.9452E+00 -1.9430E+00  2.6729E-01  2.7677E-01
  3.3542E-01  3.7299E-01  3.8606E-01  6.2348E-01  6.8090E-01  7.7856E-01
  prteigrs : nnsclo,ikpt=   30   27 max resid (incl. the buffer)=  1.87124E-16
 Non-SCF case, kpt   28 (  0.35000  0.35000  0.70000), residuals and eigenvalues=
  3.66E-17  4.30E-17  9.15E-17  2.15E-17  8.32E-17  4.02E-17  7.41E-17  8.83E-17
  8.02E-17  2.18E-17  1.34E-17  3.90E-17
 -3.4022E+00 -1.9464E+00 -1.9457E+00 -1.9427E+00  2.7436E-01  2.8270E-01
  3.2407E-01  3.6702E-01  3.8217E-01  6.2329E-01  6.6113E-01  7.8991E-01
 Non-SCF case, kpt   29 (  0.32500  0.32500  0.65000), residuals and eigenvalues=
  5.04E-17  9.51E-17  2.22E-17  3.47E-17  2.28E-17  3.47E-17  4.53E-17  5.00E-17
  2.87E-17  2.53E-17  1.89E-17  7.50E-17
 -3.4022E+00 -1.9460E+00 -1.9458E+00 -1.9424E+00  2.7852E-01  2.8917E-01
  3.1481E-01  3.6192E-01  3.7831E-01  5.6991E-01  7.0150E-01  8.0588E-01
 Non-SCF case, kpt   30 (  0.30000  0.30000  0.60000), residuals and eigenvalues=
  1.41E-17  1.44E-17  3.10E-17  4.08E-17  4.12E-17  4.04E-17  4.17E-17  6.00E-17
  5.11E-17  2.01E-17  4.72E-17  1.73E-17
 -3.4023E+00 -1.9464E+00 -1.9452E+00 -1.9423E+00  2.7800E-01  2.9648E-01
  3.0760E-01  3.5690E-01  3.7330E-01  5.2214E-01  7.4400E-01  8.2713E-01
 Non-SCF case, kpt   31 (  0.27500  0.27500  0.55000), residuals and eigenvalues=
  1.56E-17  1.53E-17  2.90E-17  3.67E-17  1.52E-17  6.50E-17  8.28E-17  3.84E-17
  3.47E-17  2.18E-17  8.69E-17  6.76E-17
 -3.4024E+00 -1.9464E+00 -1.9446E+00 -1.9420E+00  2.7121E-01  3.0289E-01
  3.0423E-01  3.5351E-01  3.6798E-01  4.8164E-01  7.8887E-01  8.5410E-01
 Non-SCF case, kpt   32 (  0.25000  0.25000  0.50000), residuals and eigenvalues=
  6.02E-17  2.32E-17  1.51E-17  3.83E-17  7.91E-17  8.65E-17  1.96E-17  3.40E-17
  4.37E-17  1.31E-17  6.57E-17  2.14E-17
 -3.4025E+00 -1.9461E+00 -1.9437E+00 -1.9416E+00  2.5767E-01  3.0072E-01
  3.1217E-01  3.5178E-01  3.6278E-01  4.4908E-01  8.3697E-01  8.8710E-01
 Non-SCF case, kpt   33 (  0.22500  0.22500  0.45000), residuals and eigenvalues=
  8.44E-17  8.47E-17  8.97E-18  2.10E-17  5.08E-17  9.90E-17  8.88E-17  2.14E-17
  3.53E-17  5.95E-17  6.40E-17  9.06E-17
 -3.4027E+00 -1.9461E+00 -1.9432E+00 -1.9416E+00  2.3760E-01  2.9939E-01
  3.1874E-01  3.5001E-01  3.5674E-01  4.2362E-01  8.8576E-01  9.2543E-01
 Non-SCF case, kpt   34 (  0.20000  0.20000  0.40000), residuals and eigenvalues=
  5.73E-17  3.00E-17  4.71E-17  2.37E-17  6.28E-17  8.69E-17  6.29E-17  6.98E-17
  1.69E-17  6.34E-17  6.73E-16  7.42E-17
 -3.4028E+00 -1.9455E+00 -1.9427E+00 -1.9414E+00  2.1351E-01  3.0051E-01
  3.2450E-01  3.5037E-01  3.5108E-01  4.0520E-01  9.3700E-01  9.6963E-01
  prteigrs : nnsclo,ikpt=   30   34 max resid (incl. the buffer)=  6.73458E-16
 Non-SCF case, kpt   35 (  0.17500  0.17500  0.35000), residuals and eigenvalues=
  1.63E-17  3.36E-17  7.07E-17  2.97E-17  6.75E-17  3.71E-17  2.44E-17  2.91E-17
  9.08E-17  1.86E-17  9.70E-17  4.39E-17
 -3.4030E+00 -1.9448E+00 -1.9423E+00 -1.9412E+00  1.8774E-01  3.0272E-01
  3.2885E-01  3.4531E-01  3.5177E-01  3.9130E-01  9.8986E-01  1.0190E+00
 Non-SCF case, kpt   36 (  0.15000  0.15000  0.30000), residuals and eigenvalues=
  5.64E-17  1.24E-17  9.66E-17  1.58E-17  3.43E-17  4.74E-17  3.99E-17  3.71E-17
  3.36E-17  1.37E-17  3.98E-16  3.71E-17
 -3.4031E+00 -1.9442E+00 -1.9418E+00 -1.9411E+00  1.6256E-01  3.0611E-01
  3.3151E-01  3.4020E-01  3.5373E-01  3.8090E-01  1.0443E+00  1.0731E+00
  prteigrs : nnsclo,ikpt=   30   36 max resid (incl. the buffer)=  3.97756E-16
 Non-SCF case, kpt   37 (  0.12500  0.12500  0.25000), residuals and eigenvalues=
  9.20E-17  4.75E-17  6.44E-17  1.31E-17  6.35E-18  2.40E-17  6.74E-17  4.25E-17
  6.06E-17  3.33E-17  1.32E-15  1.22E-17
 -3.4033E+00 -1.9432E+00 -1.9415E+00 -1.9410E+00  1.3956E-01  3.1005E-01
  3.3225E-01  3.3491E-01  3.5687E-01  3.7395E-01  1.1004E+00  1.1316E+00
  prteigrs : nnsclo,ikpt=   30   37 max resid (incl. the buffer)=  1.32096E-15
 Non-SCF case, kpt   38 (  0.10000  0.10000  0.20000), residuals and eigenvalues=
  4.11E-17  2.55E-17  3.20E-17  1.27E-17  2.11E-17  8.68E-17  4.77E-17  9.48E-17
  7.40E-17  3.74E-17  2.09E-14  7.81E-15
 -3.4034E+00 -1.9421E+00 -1.9410E+00 -1.9407E+00  1.1974E-01  3.1440E-01
  3.3099E-01  3.3138E-01  3.6045E-01  3.7080E-01  1.1564E+00  1.1941E+00
  prteigrs : nnsclo,ikpt=   30   38 max resid (incl. the buffer)=  2.09349E-14
 Non-SCF case, kpt   39 (  0.07500  0.07500  0.15000), residuals and eigenvalues=
  3.73E-17  9.68E-17  8.64E-17  1.61E-17  2.81E-17  3.23E-17  4.46E-17  1.21E-17
  2.99E-17  9.02E-17  4.38E-13  2.93E-11
 -3.4035E+00 -1.9414E+00 -1.9409E+00 -1.9407E+00  1.0370E-01  3.1771E-01
  3.2761E-01  3.2898E-01  3.6307E-01  3.6893E-01  1.2086E+00  1.2595E+00
  prteigrs : nnsclo,ikpt=   30   39 max resid (incl. the buffer)=  2.92764E-11
 Non-SCF case, kpt   40 (  0.05000  0.05000  0.10000), residuals and eigenvalues=
  5.82E-17  1.03E-17  1.66E-17  2.98E-17  6.21E-17  6.97E-17  4.80E-17  2.26E-17
  2.22E-17  9.44E-17  1.85E-12  6.44E-08
 -3.4036E+00 -1.9412E+00 -1.9407E+00 -1.9407E+00  9.1937E-02  3.2062E-01
  3.2519E-01  3.2578E-01  3.6521E-01  3.6777E-01  1.2514E+00  1.3261E+00
  prteigrs : nnsclo,ikpt=   30   40 max resid (incl. the buffer)=  6.44140E-08
 Non-SCF case, kpt   41 (  0.02500  0.02500  0.05000), residuals and eigenvalues=
  4.51E-17  3.80E-17  2.46E-17  5.00E-17  1.61E-17  3.25E-17  3.26E-17  5.74E-17
  3.14E-17  2.62E-17  3.36E-14  6.96E-05
 -3.4037E+00 -1.9407E+00 -1.9406E+00 -1.9406E+00  8.4788E-02  3.2269E-01
  3.2386E-01  3.2404E-01  3.6710E-01  3.6765E-01  1.2755E+00  1.3894E+00
  prteigrs : nnsclo,ikpt=   30   41 max resid (incl. the buffer)=  6.96310E-05
 Non-SCF case, kpt   42 (  0.00000  0.00000  0.00000), residuals and eigenvalues=
  8.86E-17  7.27E-17  1.78E-17  5.62E-17  2.96E-17  2.66E-17  6.93E-17  8.27E-17
  6.04E-17  4.59E-17  2.54E-16  1.59E-10
 -3.4037E+00 -1.9406E+00 -1.9406E+00 -1.9406E+00  8.2383E-02  3.2335E-01
  3.2335E-01  3.2335E-01  3.6759E-01  3.6759E-01  1.2819E+00  1.4245E+00
  prteigrs : nnsclo,ikpt=   30   42 max resid (incl. the buffer)=  1.58761E-10
 Non-SCF case, kpt   43 (  0.04167  0.04167  0.04167), residuals and eigenvalues=
  4.30E-17  4.28E-17  2.21E-17  9.95E-17  2.97E-17  4.67E-17  5.33E-17  3.88E-17
  8.36E-17  3.98E-17  5.10E-15  3.25E-05
 -3.4037E+00 -1.9407E+00 -1.9406E+00 -1.9406E+00  8.4888E-02  3.2273E-01
  3.2394E-01  3.2394E-01  3.6737E-01  3.6737E-01  1.2748E+00  1.3851E+00
  prteigrs : nnsclo,ikpt=   30   43 max resid (incl. the buffer)=  3.24973E-05
 Non-SCF case, kpt   44 (  0.08333  0.08333  0.08333), residuals and eigenvalues=
  4.49E-17  6.00E-17  3.02E-17  3.52E-17  1.46E-18  8.15E-17  7.75E-17  2.96E-17
  5.48E-17  4.94E-17  2.77E-13  1.10E-09
 -3.4036E+00 -1.9412E+00 -1.9407E+00 -1.9407E+00  9.2328E-02  3.2081E-01
  3.2541E-01  3.2541E-01  3.6647E-01  3.6647E-01  1.2413E+00  1.3392E+00
  prteigrs : nnsclo,ikpt=   30   44 max resid (incl. the buffer)=  1.10036E-09
 Non-SCF case, kpt   45 (  0.12500  0.12500  0.12500), residuals and eigenvalues=
  7.00E-17  1.27E-17  2.22E-17  1.35E-17  8.23E-17  3.49E-17  3.62E-17  6.43E-17
  8.76E-17  1.62E-17  3.09E-12  2.21E-12
 -3.4035E+00 -1.9416E+00 -1.9407E+00 -1.9407E+00  1.0454E-01  3.1865E-01
  3.2795E-01  3.2795E-01  3.6598E-01  3.6598E-01  1.1756E+00  1.3202E+00
  prteigrs : nnsclo,ikpt=   30   45 max resid (incl. the buffer)=  3.08861E-12
 Non-SCF case, kpt   46 (  0.16667  0.16667  0.16667), residuals and eigenvalues=
  3.14E-17  1.80E-17  5.47E-17  1.78E-17  4.13E-17  9.28E-17  3.38E-17  3.69E-17
  9.04E-17  3.25E-17  4.79E-13  1.34E-08
 -3.4034E+00 -1.9423E+00 -1.9407E+00 -1.9407E+00  1.2110E-01  3.1549E-01
  3.3054E-01  3.3054E-01  3.6628E-01  3.6628E-01  1.0980E+00  1.3099E+00
  prteigrs : nnsclo,ikpt=   30   46 max resid (incl. the buffer)=  1.34439E-08
 Non-SCF case, kpt   47 (  0.20833  0.20833  0.20833), residuals and eigenvalues=
  6.65E-17  1.40E-17  1.53E-17  1.62E-17  1.73E-17  2.69E-17  3.04E-17  3.01E-17
  3.43E-17  6.72E-17  1.87E-16  2.34E-08
 -3.4032E+00 -1.9435E+00 -1.9409E+00 -1.9409E+00  1.4136E-01  3.1255E-01
  3.3206E-01  3.3206E-01  3.6718E-01  3.6718E-01  1.0191E+00  1.2989E+00
  prteigrs : nnsclo,ikpt=   30   47 max resid (incl. the buffer)=  2.34134E-08
 Non-SCF case, kpt   48 (  0.25000  0.25000  0.25000), residuals and eigenvalues=
  6.84E-17  2.88E-17  1.75E-17  2.50E-17  4.53E-17  5.15E-17  5.37E-17  8.54E-17
  3.55E-17  8.71E-17  1.47E-16  3.96E-07
 -3.4031E+00 -1.9446E+00 -1.9412E+00 -1.9412E+00  1.6418E-01  3.1152E-01
  3.3196E-01  3.3196E-01  3.6972E-01  3.6972E-01  9.4221E-01  1.2857E+00
  prteigrs : nnsclo,ikpt=   30   48 max resid (incl. the buffer)=  3.95776E-07
 Non-SCF case, kpt   49 (  0.29167  0.29167  0.29167), residuals and eigenvalues=
  4.06E-17  8.20E-17  3.04E-17  3.67E-17  7.34E-17  2.62E-17  3.82E-17  5.70E-17
  7.92E-17  3.53E-17  2.02E-17  2.79E-09
 -3.4030E+00 -1.9457E+00 -1.9416E+00 -1.9416E+00  1.8745E-01  3.1470E-01
  3.3045E-01  3.3045E-01  3.7326E-01  3.7326E-01  8.6848E-01  1.2713E+00
  prteigrs : nnsclo,ikpt=   30   49 max resid (incl. the buffer)=  2.79239E-09
 Non-SCF case, kpt   50 (  0.33333  0.33333  0.33333), residuals and eigenvalues=
  3.97E-17  3.29E-17  2.24E-17  2.63E-17  5.53E-17  2.29E-17  5.25E-17  8.68E-17
  7.78E-17  6.34E-17  4.44E-17  1.13E-10
 -3.4029E+00 -1.9469E+00 -1.9417E+00 -1.9417E+00  2.0781E-01  3.2406E-01
  3.2887E-01  3.2887E-01  3.7826E-01  3.7826E-01  7.9842E-01  1.2572E+00
  prteigrs : nnsclo,ikpt=   30   50 max resid (incl. the buffer)=  1.12541E-10
 Non-SCF case, kpt   51 (  0.37500  0.37500  0.37500), residuals and eigenvalues=
  2.96E-17  1.57E-17  3.05E-17  3.93E-17  4.06E-17  7.31E-17  7.19E-17  8.46E-17
  8.33E-17  5.70E-17  6.01E-17  8.16E-14
 -3.4028E+00 -1.9476E+00 -1.9419E+00 -1.9419E+00  2.2235E-01  3.2685E-01
  3.2685E-01  3.4271E-01  3.8299E-01  3.8299E-01  7.3443E-01  1.2449E+00
  prteigrs : nnsclo,ikpt=   30   51 max resid (incl. the buffer)=  8.16412E-14
 Non-SCF case, kpt   52 (  0.41667  0.41667  0.41667), residuals and eigenvalues=
  4.05E-17  1.04E-17  2.64E-17  6.66E-17  7.92E-17  2.86E-17  2.45E-17  8.76E-18
  3.09E-17  3.97E-17  9.92E-17  6.58E-13
 -3.4026E+00 -1.9481E+00 -1.9418E+00 -1.9418E+00  2.3036E-01  3.2546E-01
  3.2546E-01  3.6781E-01  3.8732E-01  3.8732E-01  6.7875E-01  1.2353E+00
  prteigrs : nnsclo,ikpt=   30   52 max resid (incl. the buffer)=  6.58332E-13
 Non-SCF case, kpt   53 (  0.45833  0.45833  0.45833), residuals and eigenvalues=
  7.08E-17  1.93E-17  2.81E-17  8.22E-17  4.87E-17  2.35E-17  2.33E-17  7.10E-17
  2.50E-17  2.94E-18  2.99E-17  2.36E-13
 -3.4025E+00 -1.9484E+00 -1.9417E+00 -1.9417E+00  2.3416E-01  3.2474E-01
  3.2474E-01  3.9016E-01  3.9016E-01  3.9208E-01  6.3776E-01  1.2294E+00
  prteigrs : nnsclo,ikpt=   30   53 max resid (incl. the buffer)=  2.35896E-13
 Non-SCF case, kpt   54 (  0.50000  0.50000  0.50000), residuals and eigenvalues=
  1.84E-17  7.51E-17  1.35E-17  9.19E-17  2.82E-17  4.64E-17  3.84E-17  4.81E-17
  3.17E-17  2.20E-17  2.82E-17  1.24E-13
 -3.4025E+00 -1.9483E+00 -1.9415E+00 -1.9415E+00  2.3528E-01  3.2482E-01
  3.2482E-01  3.9163E-01  3.9163E-01  4.0284E-01  6.2175E-01  1.2273E+00
  prteigrs : nnsclo,ikpt=   30   54 max resid (incl. the buffer)=  1.23820E-13
 Non-SCF case, kpt   55 (  0.51389  0.47222  0.51389), residuals and eigenvalues=
  6.03E-17  5.58E-17  5.88E-17  9.08E-17  2.40E-17  4.44E-17  4.36E-17  4.18E-17
  2.67E-17  8.71E-17  3.34E-17  4.01E-12
 -3.4025E+00 -1.9484E+00 -1.9420E+00 -1.9417E+00  2.3658E-01  3.2350E-01
  3.2504E-01  3.7569E-01  3.9116E-01  4.2032E-01  6.2181E-01  1.2143E+00
  prteigrs : nnsclo,ikpt=   30   55 max resid (incl. the buffer)=  4.00513E-12
 Non-SCF case, kpt   56 (  0.52778  0.44444  0.52778), residuals and eigenvalues=
  7.79E-17  5.62E-17  1.03E-17  7.94E-17  2.64E-17  8.83E-17  7.04E-17  9.51E-17
  3.03E-17  2.94E-17  3.76E-17  2.92E-12
 -3.4025E+00 -1.9484E+00 -1.9421E+00 -1.9419E+00  2.4077E-01  3.2057E-01
  3.2800E-01  3.5828E-01  3.9037E-01  4.4459E-01  6.2321E-01  1.1704E+00
  prteigrs : nnsclo,ikpt=   30   56 max resid (incl. the buffer)=  2.92230E-12
 Non-SCF case, kpt   57 (  0.54167  0.41667  0.54167), residuals and eigenvalues=
  4.04E-17  3.29E-17  2.51E-17  2.97E-17  7.70E-17  6.06E-17  4.10E-17  2.82E-17
  3.31E-17  2.02E-17  2.04E-17  1.37E-10
 -3.4024E+00 -1.9482E+00 -1.9426E+00 -1.9419E+00  2.4730E-01  3.1554E-01
  3.3256E-01  3.4325E-01  3.8960E-01  4.7104E-01  6.2566E-01  1.1066E+00
  prteigrs : nnsclo,ikpt=   30   57 max resid (incl. the buffer)=  1.36776E-10
 Non-SCF case, kpt   58 (  0.55556  0.38889  0.55556), residuals and eigenvalues=
  3.46E-17  6.44E-17  1.77E-17  2.45E-17  8.94E-17  9.66E-17  4.01E-17  7.75E-17
  4.58E-17  5.82E-17  7.08E-17  5.62E-12
 -3.4024E+00 -1.9479E+00 -1.9431E+00 -1.9421E+00  2.5543E-01  3.0892E-01
  3.3186E-01  3.3837E-01  3.8861E-01  4.9981E-01  6.2942E-01  1.0377E+00
  prteigrs : nnsclo,ikpt=   30   58 max resid (incl. the buffer)=  5.61943E-12
 Non-SCF case, kpt   59 (  0.56944  0.36111  0.56944), residuals and eigenvalues=
  4.82E-17  5.81E-17  2.04E-17  1.54E-17  5.77E-17  5.94E-17  2.35E-17  7.12E-17
  3.03E-17  6.03E-17  8.94E-17  8.21E-13
 -3.4023E+00 -1.9475E+00 -1.9436E+00 -1.9423E+00  2.6385E-01  3.0095E-01
  3.2434E-01  3.4566E-01  3.8748E-01  5.3038E-01  6.3488E-01  9.6931E-01
  prteigrs : nnsclo,ikpt=   30   59 max resid (incl. the buffer)=  8.20847E-13
 Non-SCF case, kpt   60 (  0.58333  0.33333  0.58333), residuals and eigenvalues=
  5.72E-17  7.15E-17  1.22E-17  2.16E-17  7.65E-17  2.24E-17  2.42E-17  4.49E-17
  7.39E-17  5.47E-17  5.33E-17  6.58E-15
 -3.4023E+00 -1.9472E+00 -1.9443E+00 -1.9424E+00  2.7035E-01  2.9277E-01
  3.2103E-01  3.5365E-01  3.8659E-01  5.6232E-01  6.4174E-01  9.0381E-01
  prteigrs : nnsclo,ikpt=   30   60 max resid (incl. the buffer)=  6.57735E-15
 Non-SCF case, kpt   61 (  0.59722  0.30556  0.59722), residuals and eigenvalues=
  6.27E-17  1.25E-17  9.01E-17  7.06E-17  3.02E-17  2.81E-17  5.88E-17  4.83E-17
  5.82E-17  2.12E-17  6.47E-17  5.41E-17
 -3.4022E+00 -1.9469E+00 -1.9449E+00 -1.9425E+00  2.7302E-01  2.8575E-01
  3.2285E-01  3.6146E-01  3.8562E-01  5.9502E-01  6.4979E-01  8.4489E-01
 Non-SCF case, kpt   62 (  0.61111  0.27778  0.61111), residuals and eigenvalues=
  5.62E-17  3.99E-17  1.69E-17  4.70E-17  6.52E-17  8.67E-17  6.30E-17  3.85E-17
  9.85E-17  2.61E-17  5.88E-17  1.38E-16
 -3.4022E+00 -1.9467E+00 -1.9453E+00 -1.9428E+00  2.7119E-01  2.8052E-01
  3.2838E-01  3.6816E-01  3.8526E-01  6.2357E-01  6.5830E-01  7.9908E-01
  prteigrs : nnsclo,ikpt=   30   62 max resid (incl. the buffer)=  1.37875E-16
 Non-SCF case, kpt   63 (  0.62500  0.25000  0.62500), residuals and eigenvalues=
  3.86E-17  4.02E-17  2.11E-17  3.39E-17  1.38E-17  2.06E-17  2.31E-17  5.90E-17
  2.66E-17  3.72E-17  7.08E-17  4.25E-17
 -3.4022E+00 -1.9469E+00 -1.9452E+00 -1.9430E+00  2.6729E-01  2.7677E-01
  3.3542E-01  3.7299E-01  3.8606E-01  6.2348E-01  6.8090E-01  7.7856E-01
 Non-SCF case, kpt   64 (  0.60000  0.25000  0.65000), residuals and eigenvalues=
  5.70E-17  5.39E-17  9.39E-18  6.83E-17  8.34E-17  5.73E-17  3.73E-17  9.55E-17
  8.24E-17  1.76E-17  1.62E-17  6.89E-17
 -3.4022E+00 -1.9468E+00 -1.9452E+00 -1.9431E+00  2.6805E-01  2.7743E-01
  3.3299E-01  3.7227E-01  3.8742E-01  6.2669E-01  6.8330E-01  7.7901E-01
 Non-SCF case, kpt   65 (  0.57500  0.25000  0.67500), residuals and eigenvalues=
  3.05E-17  3.92E-17  6.15E-17  3.50E-17  6.21E-17  6.68E-17  7.58E-17  3.96E-17
  7.76E-17  3.83E-17  1.65E-17  1.98E-15
 -3.4021E+00 -1.9467E+00 -1.9453E+00 -1.9432E+00  2.7050E-01  2.7983E-01
  3.2665E-01  3.7046E-01  3.8998E-01  6.3604E-01  6.9015E-01  7.8104E-01
  prteigrs : nnsclo,ikpt=   30   65 max resid (incl. the buffer)=  1.98170E-15
 Non-SCF case, kpt   66 (  0.55000  0.25000  0.70000), residuals and eigenvalues=
  6.70E-17  1.64E-17  4.88E-17  2.19E-17  5.82E-17  1.96E-17  4.78E-17  7.16E-17
  9.47E-17  7.92E-17  5.26E-14  2.02E-16
 -3.4021E+00 -1.9465E+00 -1.9454E+00 -1.9433E+00  2.7287E-01  2.8480E-01
  3.1832E-01  3.6806E-01  3.9289E-01  6.5142E-01  6.9994E-01  7.8377E-01
  prteigrs : nnsclo,ikpt=   30   66 max resid (incl. the buffer)=  5.26374E-14
 Non-SCF case, kpt   67 (  0.52500  0.25000  0.72500), residuals and eigenvalues=
  6.72E-17  5.82E-17  8.66E-17  1.89E-17  8.54E-17  3.98E-17  7.57E-17  7.84E-17
  5.64E-17  9.03E-17  1.93E-13  3.60E-07
 -3.4022E+00 -1.9463E+00 -1.9457E+00 -1.9436E+00  2.7429E-01  2.9182E-01
  3.0910E-01  3.6518E-01  3.9451E-01  6.7200E-01  7.0782E-01  7.8428E-01
  prteigrs : nnsclo,ikpt=   30   67 max resid (incl. the buffer)=  3.59873E-07
 Non-SCF case, kpt   68 (  0.50000  0.25000  0.75000), residuals and eigenvalues=
  7.34E-17  7.18E-17  2.60E-17  4.63E-17  9.88E-17  6.59E-17  7.30E-17  4.36E-17
  4.97E-17  2.33E-17  9.50E-17  2.76E-12
 -3.4021E+00 -1.9459E+00 -1.9459E+00 -1.9436E+00  2.7501E-01  3.0040E-01
  3.0040E-01  3.6435E-01  3.9529E-01  6.9740E-01  6.9740E-01  7.7986E-01
  prteigrs : nnsclo,ikpt=   30   68 max resid (incl. the buffer)=  2.75677E-12
 Non-SCF case, kpt   69 (  0.50000  0.27500  0.72500), residuals and eigenvalues=
  6.28E-17  1.78E-17  1.71E-17  1.61E-17  6.44E-17  1.28E-17  3.90E-17  5.49E-17
  8.13E-17  6.68E-17  2.65E-17  7.82E-08
 -3.4021E+00 -1.9460E+00 -1.9459E+00 -1.9435E+00  2.7596E-01  2.9866E-01
  3.0122E-01  3.6424E-01  3.9396E-01  6.7850E-01  6.8972E-01  8.0109E-01
  prteigrs : nnsclo,ikpt=   30   69 max resid (incl. the buffer)=  7.81567E-08
 Non-SCF case, kpt   70 (  0.50000  0.30000  0.70000), residuals and eigenvalues=
  4.82E-17  9.76E-18  7.47E-18  3.58E-17  9.82E-17  5.01E-17  3.16E-17  3.02E-17
  4.02E-17  3.90E-17  6.04E-17  9.99E-07
 -3.4022E+00 -1.9463E+00 -1.9455E+00 -1.9434E+00  2.7905E-01  2.9348E-01
  3.0361E-01  3.6350E-01  3.9100E-01  6.4367E-01  6.7391E-01  8.4351E-01
  prteigrs : nnsclo,ikpt=   30   70 max resid (incl. the buffer)=  9.99407E-07
 Non-SCF case, kpt   71 (  0.50000  0.32500  0.67500), residuals and eigenvalues=
  7.74E-17  1.82E-17  3.89E-17  5.59E-17  8.85E-17  6.27E-17  2.73E-17  8.71E-17
  3.36E-17  7.51E-17  1.30E-16  2.65E-11
 -3.4022E+00 -1.9467E+00 -1.9450E+00 -1.9431E+00  2.8419E-01  2.8607E-01
  3.0762E-01  3.6069E-01  3.8810E-01  6.0695E-01  6.5830E-01  8.9226E-01
  prteigrs : nnsclo,ikpt=   30   71 max resid (incl. the buffer)=  2.64641E-11
 Non-SCF case, kpt   72 (  0.50000  0.35000  0.65000), residuals and eigenvalues=
  4.30E-17  6.15E-17  9.33E-17  6.18E-17  1.92E-17  7.56E-17  8.02E-17  4.57E-17
  8.26E-17  5.93E-17  8.73E-17  1.51E-05
 -3.4023E+00 -1.9471E+00 -1.9444E+00 -1.9427E+00  2.7714E-01  2.9093E-01
  3.1351E-01  3.5502E-01  3.8719E-01  5.7111E-01  6.4586E-01  9.4479E-01
  prteigrs : nnsclo,ikpt=   30   72 max resid (incl. the buffer)=  1.51054E-05
 Non-SCF case, kpt   73 (  0.50000  0.37500  0.62500), residuals and eigenvalues=
  4.41E-17  8.63E-17  2.03E-17  7.95E-17  6.93E-17  7.72E-17  7.29E-17  8.19E-17
  9.83E-17  3.94E-17  6.07E-17  5.13E-12
 -3.4023E+00 -1.9475E+00 -1.9436E+00 -1.9424E+00  2.6717E-01  2.9915E-01
  3.2066E-01  3.4776E-01  3.8751E-01  5.3704E-01  6.3673E-01  1.0000E+00
  prteigrs : nnsclo,ikpt=   30   73 max resid (incl. the buffer)=  5.13187E-12
 Non-SCF case, kpt   74 (  0.50000  0.40000  0.60000), residuals and eigenvalues=
  1.83E-17  1.16E-17  7.54E-17  7.53E-17  1.36E-17  4.24E-17  5.69E-17  5.73E-17
  4.06E-17  7.49E-17  3.81E-17  4.73E-08
 -3.4024E+00 -1.9479E+00 -1.9431E+00 -1.9424E+00  2.5714E-01  3.0731E-01
  3.2961E-01  3.3982E-01  3.8824E-01  5.0476E-01  6.3019E-01  1.0573E+00
  prteigrs : nnsclo,ikpt=   30   74 max resid (incl. the buffer)=  4.73141E-08
 Non-SCF case, kpt   75 (  0.50000  0.42500  0.57500), residuals and eigenvalues=
  9.09E-17  1.67E-17  8.06E-17  1.81E-17  7.57E-17  4.36E-17  3.77E-17  5.42E-17
  4.82E-17  3.17E-17  6.46E-17  1.26E-06
 -3.4025E+00 -1.9482E+00 -1.9427E+00 -1.9421E+00  2.4822E-01  3.1470E-01
  3.3297E-01  3.4142E-01  3.8935E-01  4.7429E-01  6.2593E-01  1.1156E+00
  prteigrs : nnsclo,ikpt=   30   75 max resid (incl. the buffer)=  1.26201E-06
 Non-SCF case, kpt   76 (  0.50000  0.45000  0.55000), residuals and eigenvalues=
  8.08E-17  1.44E-17  8.87E-18  2.92E-17  2.59E-17  2.45E-17  6.65E-17  5.38E-17
  4.37E-17  7.00E-17  6.21E-17  7.21E-08
 -3.4025E+00 -1.9484E+00 -1.9422E+00 -1.9420E+00  2.4116E-01  3.1999E-01
  3.2825E-01  3.5697E-01  3.9022E-01  4.4662E-01  6.2322E-01  1.1712E+00
  prteigrs : nnsclo,ikpt=   30   76 max resid (incl. the buffer)=  7.21500E-08
 Non-SCF case, kpt   77 (  0.50000  0.47500  0.52500), residuals and eigenvalues=
  3.15E-17  1.89E-17  3.23E-17  1.93E-17  7.34E-17  7.22E-17  3.34E-17  6.92E-17
  4.12E-17  2.25E-17  6.62E-17  1.02E-11
 -3.4025E+00 -1.9485E+00 -1.9420E+00 -1.9419E+00  2.3665E-01  3.2301E-01
  3.2514E-01  3.7494E-01  3.9095E-01  4.2121E-01  6.2169E-01  1.2134E+00
  prteigrs : nnsclo,ikpt=   30   77 max resid (incl. the buffer)=  1.02305E-11
 Non-SCF case, kpt   78 (  0.50000  0.50000  0.50000), residuals and eigenvalues=
  1.84E-17  7.51E-17  1.35E-17  9.19E-17  2.82E-17  4.64E-17  3.84E-17  4.81E-17
  3.17E-17  2.20E-17  2.82E-17  1.24E-13
 -3.4025E+00 -1.9483E+00 -1.9415E+00 -1.9415E+00  2.3528E-01  3.2482E-01
  3.2482E-01  3.9163E-01  3.9163E-01  4.0284E-01  6.2175E-01  1.2273E+00
  prteigrs : nnsclo,ikpt=   30   78 max resid (incl. the buffer)=  1.23820E-13
 Non-SCF case, kpt   79 (  0.48611  0.48611  0.52778), residuals and eigenvalues=
  8.97E-17  8.66E-18  3.21E-17  1.81E-17  7.08E-17  3.84E-17  2.93E-17  4.40E-17
  8.25E-17  3.83E-17  9.85E-17  2.95E-12
 -3.4025E+00 -1.9484E+00 -1.9420E+00 -1.9417E+00  2.3658E-01  3.2350E-01
  3.2504E-01  3.7569E-01  3.9116E-01  4.2032E-01  6.2181E-01  1.2143E+00
  prteigrs : nnsclo,ikpt=   30   79 max resid (incl. the buffer)=  2.94721E-12
 Non-SCF case, kpt   80 (  0.47222  0.47222  0.55556), residuals and eigenvalues=
  4.41E-17  1.29E-17  1.66E-17  8.28E-17  3.08E-17  4.40E-17  1.96E-17  4.63E-17
  4.34E-17  1.23E-17  5.35E-17  2.64E-11
 -3.4025E+00 -1.9484E+00 -1.9421E+00 -1.9419E+00  2.4077E-01  3.2057E-01
  3.2800E-01  3.5828E-01  3.9037E-01  4.4459E-01  6.2321E-01  1.1704E+00
  prteigrs : nnsclo,ikpt=   30   80 max resid (incl. the buffer)=  2.64278E-11
 Non-SCF case, kpt   81 (  0.45833  0.45833  0.58333), residuals and eigenvalues=
  6.13E-17  1.26E-17  2.88E-17  8.88E-18  4.83E-17  2.63E-17  4.72E-17  2.41E-17
  4.36E-17  1.65E-17  3.25E-17  5.68E-11
 -3.4024E+00 -1.9482E+00 -1.9426E+00 -1.9419E+00  2.4730E-01  3.1554E-01
  3.3256E-01  3.4325E-01  3.8960E-01  4.7104E-01  6.2566E-01  1.1066E+00
  prteigrs : nnsclo,ikpt=   30   81 max resid (incl. the buffer)=  5.67551E-11
 Non-SCF case, kpt   82 (  0.44444  0.44444  0.61111), residuals and eigenvalues=
  7.71E-17  7.13E-17  7.62E-17  2.64E-17  1.49E-17  7.33E-17  3.74E-17  4.32E-17
  5.68E-17  1.91E-17  4.99E-17  1.27E-11
 -3.4024E+00 -1.9479E+00 -1.9431E+00 -1.9421E+00  2.5543E-01  3.0892E-01
  3.3186E-01  3.3837E-01  3.8861E-01  4.9981E-01  6.2942E-01  1.0377E+00
  prteigrs : nnsclo,ikpt=   30   82 max resid (incl. the buffer)=  1.26800E-11
 Non-SCF case, kpt   83 (  0.43056  0.43056  0.63889), residuals and eigenvalues=
  3.54E-17  1.20E-17  3.15E-17  1.80E-17  7.21E-17  2.88E-17  2.28E-17  5.49E-17
  3.38E-17  3.81E-17  8.93E-17  5.33E-13
 -3.4023E+00 -1.9475E+00 -1.9436E+00 -1.9423E+00  2.6385E-01  3.0095E-01
  3.2434E-01  3.4566E-01  3.8748E-01  5.3038E-01  6.3488E-01  9.6931E-01
  prteigrs : nnsclo,ikpt=   30   83 max resid (incl. the buffer)=  5.33022E-13
 Non-SCF case, kpt   84 (  0.41667  0.41667  0.66667), residuals and eigenvalues=
  5.15E-17  7.26E-17  1.27E-17  5.34E-17  3.23E-17  2.23E-17  4.58E-17  7.69E-17
  9.40E-17  1.53E-17  3.64E-17  2.65E-15
 -3.4023E+00 -1.9472E+00 -1.9443E+00 -1.9424E+00  2.7035E-01  2.9277E-01
  3.2103E-01  3.5365E-01  3.8659E-01  5.6232E-01  6.4174E-01  9.0381E-01
  prteigrs : nnsclo,ikpt=   30   84 max resid (incl. the buffer)=  2.64805E-15
 Non-SCF case, kpt   85 (  0.40278  0.40278  0.69444), residuals and eigenvalues=
  6.14E-17  1.33E-17  8.25E-17  7.51E-17  4.64E-17  5.51E-17  8.56E-17  5.91E-17
  3.72E-17  6.96E-17  5.46E-17  7.57E-17
 -3.4022E+00 -1.9469E+00 -1.9449E+00 -1.9425E+00  2.7302E-01  2.8575E-01
  3.2285E-01  3.6146E-01  3.8562E-01  5.9502E-01  6.4979E-01  8.4489E-01
 Non-SCF case, kpt   86 (  0.38889  0.38889  0.72222), residuals and eigenvalues=
  8.84E-17  3.17E-17  1.55E-17  9.07E-18  6.75E-17  6.82E-17  5.09E-17  2.81E-17
  7.86E-17  6.50E-17  6.78E-17  1.29E-15
 -3.4022E+00 -1.9467E+00 -1.9453E+00 -1.9428E+00  2.7119E-01  2.8052E-01
  3.2838E-01  3.6816E-01  3.8526E-01  6.2357E-01  6.5830E-01  7.9908E-01
  prteigrs : nnsclo,ikpt=   30   86 max resid (incl. the buffer)=  1.28574E-15
 Non-SCF case, kpt   87 (  0.37500  0.37500  0.75000), residuals and eigenvalues=
  2.97E-17  3.66E-17  6.70E-17  8.49E-17  7.41E-17  6.14E-17  4.33E-17  3.81E-17
  3.63E-17  7.86E-17  3.89E-17  1.87E-16
 -3.4022E+00 -1.9469E+00 -1.9452E+00 -1.9430E+00  2.6729E-01  2.7677E-01
  3.3542E-01  3.7299E-01  3.8606E-01  6.2348E-01  6.8090E-01  7.7856E-01
  prteigrs : nnsclo,ikpt=   30   87 max resid (incl. the buffer)=  1.87124E-16
 Non-SCF case, kpt   88 (  0.40278  0.36111  0.73611), residuals and eigenvalues=
  8.89E-17  5.28E-17  2.31E-17  4.15E-17  4.14E-17  3.72E-17  2.92E-17  9.52E-17
  4.90E-17  7.04E-17  7.88E-17  3.05E-16
 -3.4022E+00 -1.9467E+00 -1.9453E+00 -1.9430E+00  2.6985E-01  2.7888E-01
  3.3029E-01  3.7053E-01  3.8627E-01  6.3105E-01  6.6828E-01  7.8527E-01
  prteigrs : nnsclo,ikpt=   30   88 max resid (incl. the buffer)=  3.04891E-16
 Non-SCF case, kpt   89 (  0.43056  0.34722  0.72222), residuals and eigenvalues=
  4.00E-17  5.79E-17  9.86E-17  1.33E-17  8.54E-17  7.89E-17  3.92E-17  4.23E-17
  2.39E-17  7.79E-17  9.70E-17  2.17E-16
 -3.4022E+00 -1.9466E+00 -1.9453E+00 -1.9429E+00  2.7394E-01  2.8186E-01
  3.2263E-01  3.6762E-01  3.8763E-01  6.3168E-01  6.6411E-01  8.0161E-01
  prteigrs : nnsclo,ikpt=   30   89 max resid (incl. the buffer)=  2.17493E-16
 Non-SCF case, kpt   90 (  0.45833  0.33333  0.70833), residuals and eigenvalues=
  5.37E-17  4.05E-17  4.18E-17  2.84E-17  2.71E-17  7.40E-17  1.70E-17  9.97E-17
  3.79E-17  1.63E-17  8.53E-17  6.43E-13
 -3.4022E+00 -1.9466E+00 -1.9453E+00 -1.9431E+00  2.7816E-01  2.8530E-01
  3.1401E-01  3.6463E-01  3.8868E-01  6.2817E-01  6.6469E-01  8.2645E-01
  prteigrs : nnsclo,ikpt=   30   90 max resid (incl. the buffer)=  6.42545E-13
 Non-SCF case, kpt   91 (  0.48611  0.31944  0.69444), residuals and eigenvalues=
  8.41E-17  2.09E-17  9.61E-17  4.68E-17  6.27E-17  1.72E-17  6.51E-17  4.65E-17
  8.94E-17  7.90E-17  9.56E-17  7.65E-08
 -3.4022E+00 -1.9465E+00 -1.9453E+00 -1.9432E+00  2.8103E-01  2.8924E-01
  3.0680E-01  3.6278E-01  3.8940E-01  6.2565E-01  6.6569E-01  8.5734E-01
  prteigrs : nnsclo,ikpt=   30   91 max resid (incl. the buffer)=  7.65301E-08
 Non-SCF case, kpt   92 (  0.51389  0.30556  0.68056), residuals and eigenvalues=
  3.81E-17  1.38E-17  9.07E-17  2.01E-17  9.75E-17  2.85E-17  2.53E-17  8.20E-17
  4.71E-17  9.04E-17  1.46E-17  3.17E-09
 -3.4022E+00 -1.9465E+00 -1.9453E+00 -1.9432E+00  2.8103E-01  2.8924E-01
  3.0680E-01  3.6278E-01  3.8940E-01  6.2565E-01  6.6569E-01  8.5734E-01
  prteigrs : nnsclo,ikpt=   30   92 max resid (incl. the buffer)=  3.16666E-09
 Non-SCF case, kpt   93 (  0.54167  0.29167  0.66667), residuals and eigenvalues=
  6.81E-17  3.58E-17  2.62E-17  3.10E-17  2.42E-17  3.63E-17  5.20E-17  6.09E-17
  7.87E-17  4.35E-17  3.09E-17  6.89E-16
 -3.4022E+00 -1.9466E+00 -1.9453E+00 -1.9431E+00  2.7816E-01  2.8530E-01
  3.1401E-01  3.6463E-01  3.8868E-01  6.2817E-01  6.6469E-01  8.2645E-01
  prteigrs : nnsclo,ikpt=   30   93 max resid (incl. the buffer)=  6.88800E-16
 Non-SCF case, kpt   94 (  0.56944  0.27778  0.65278), residuals and eigenvalues=
  5.20E-17  5.59E-17  4.13E-17  2.02E-17  2.03E-17  4.33E-17  1.51E-17  8.36E-17
  6.53E-17  2.19E-17  1.87E-17  4.24E-16
 -3.4022E+00 -1.9466E+00 -1.9453E+00 -1.9429E+00  2.7394E-01  2.8186E-01
  3.2263E-01  3.6762E-01  3.8763E-01  6.3168E-01  6.6411E-01  8.0161E-01
  prteigrs : nnsclo,ikpt=   30   94 max resid (incl. the buffer)=  4.23968E-16
 Non-SCF case, kpt   95 (  0.59722  0.26389  0.63889), residuals and eigenvalues=
  5.43E-17  9.91E-18  2.04E-17  3.58E-17  7.06E-17  3.47E-17  4.35E-17  4.64E-17
  6.97E-17  9.56E-17  7.25E-17  9.64E-17
 -3.4022E+00 -1.9467E+00 -1.9453E+00 -1.9430E+00  2.6985E-01  2.7888E-01
  3.3029E-01  3.7053E-01  3.8627E-01  6.3105E-01  6.6828E-01  7.8527E-01
 Non-SCF case, kpt   96 (  0.62500  0.25000  0.62500), residuals and eigenvalues=
  3.86E-17  4.02E-17  2.11E-17  3.39E-17  1.38E-17  2.06E-17  2.31E-17  5.90E-17
  2.66E-17  3.72E-17  7.08E-17  4.25E-17
 -3.4022E+00 -1.9469E+00 -1.9452E+00 -1.9430E+00  2.6729E-01  2.7677E-01
  3.3542E-01  3.7299E-01  3.8606E-01  6.2348E-01  6.8090E-01  7.7856E-01
 Non-SCF case, kpt   97 (  0.60000  0.20000  0.60000), residuals and eigenvalues=
  4.95E-17  5.16E-17  1.54E-17  5.17E-17  3.96E-17  3.22E-17  2.42E-17  7.22E-17
  8.82E-17  8.45E-17  8.61E-17  8.04E-17
 -3.4022E+00 -1.9474E+00 -1.9449E+00 -1.9431E+00  2.5977E-01  2.7069E-01
  3.4844E-01  3.7916E-01  3.8928E-01  5.8848E-01  7.3732E-01  7.7554E-01
 Non-SCF case, kpt   98 (  0.57500  0.15000  0.57500), residuals and eigenvalues=
  8.90E-17  3.39E-17  5.88E-17  1.60E-17  8.48E-17  4.62E-17  5.94E-17  5.35E-17
  9.35E-17  2.22E-17  1.87E-14  8.97E-17
 -3.4021E+00 -1.9477E+00 -1.9444E+00 -1.9433E+00  2.5284E-01  2.6558E-01
  3.6332E-01  3.8499E-01  3.9187E-01  5.5717E-01  7.5606E-01  8.1518E-01
  prteigrs : nnsclo,ikpt=   30   98 max resid (incl. the buffer)=  1.87190E-14
 Non-SCF case, kpt   99 (  0.55000  0.10000  0.55000), residuals and eigenvalues=
  5.71E-17  6.25E-17  1.54E-17  1.55E-17  3.86E-17  4.28E-17  6.18E-17  4.59E-17
  6.66E-17  8.92E-17  2.75E-13  4.80E-10
 -3.4021E+00 -1.9480E+00 -1.9438E+00 -1.9437E+00  2.4713E-01  2.6193E-01
  3.7820E-01  3.8929E-01  3.9344E-01  5.3041E-01  7.5461E-01  8.7664E-01
  prteigrs : nnsclo,ikpt=   30   99 max resid (incl. the buffer)=  4.79971E-10
 Non-SCF case, kpt  100 (  0.52500  0.05000  0.52500), residuals and eigenvalues=
  3.51E-17  8.13E-17  5.79E-17  6.08E-17  8.18E-17  3.80E-17  7.41E-17  9.24E-17
  4.10E-17  7.66E-17  2.06E-13  4.54E-08
 -3.4022E+00 -1.9482E+00 -1.9438E+00 -1.9438E+00  2.4349E-01  2.5932E-01
  3.8986E-01  3.9178E-01  3.9447E-01  5.1076E-01  7.5280E-01  9.3148E-01
  prteigrs : nnsclo,ikpt=   30  100 max resid (incl. the buffer)=  4.53844E-08
 Non-SCF case, kpt  101 (  0.50000  0.00000  0.50000), residuals and eigenvalues=
  4.93E-17  2.11E-17  5.00E-17  4.80E-17  8.73E-17  9.99E-17  6.68E-17  6.49E-17
  5.10E-17  1.85E-17  2.19E-15  9.30E-17
 -3.4022E+00 -1.9483E+00 -1.9439E+00 -1.9439E+00  2.4218E-01  2.5822E-01
  3.9273E-01  3.9484E-01  3.9484E-01  5.0324E-01  7.5206E-01  9.5702E-01
  prteigrs : nnsclo,ikpt=   30  101 max resid (incl. the buffer)=  2.18876E-15

 SPIN DOWN channel
 Non-SCF case, kpt    1 (  0.00000  0.00000  0.00000), residuals and eigenvalues=
  7.55E-17  7.55E-17  1.52E-17  5.54E-17  1.69E-17  1.97E-17  7.81E-17  6.16E-17
  7.29E-17  5.99E-17  1.18E-16  5.62E-11
 -3.3762E+00 -1.9107E+00 -1.9107E+00 -1.9107E+00  7.9788E-02  3.5346E-01
  3.5346E-01  3.5346E-01  3.9257E-01  3.9257E-01  1.2748E+00  1.4232E+00
  prteigrs : nnsclo,ikpt=   30    1 max resid (incl. the buffer)=  5.62258E-11
 Non-SCF case, kpt    2 (  0.03571  0.00000  0.03571), residuals and eigenvalues=
  3.19E-17  4.28E-17  2.48E-17  4.68E-17  1.47E-17  6.85E-17  8.20E-17  5.38E-17
  6.43E-17  1.88E-17  2.43E-14  5.60E-05
 -3.3762E+00 -1.9107E+00 -1.9107E+00 -1.9107E+00  8.2246E-02  3.5250E-01
  3.5419E-01  3.5419E-01  3.9174E-01  3.9291E-01  1.2698E+00  1.4009E+00
  prteigrs : nnsclo,ikpt=   30    2 max resid (incl. the buffer)=  5.60198E-05
 Non-SCF case, kpt    3 (  0.07143  0.00000  0.07143), residuals and eigenvalues=
  4.21E-17  9.43E-17  1.16E-17  6.55E-17  3.35E-17  2.94E-17  6.57E-17  4.89E-17
  4.23E-17  2.84E-17  3.09E-12  1.94E-04
 -3.3761E+00 -1.9112E+00 -1.9108E+00 -1.9108E+00  8.9559E-02  3.4968E-01
  3.5619E-01  3.5619E-01  3.8889E-01  3.9390E-01  1.2569E+00  1.3571E+00
  prteigrs : nnsclo,ikpt=   30    3 max resid (incl. the buffer)=  1.93678E-04
 Non-SCF case, kpt    4 (  0.10714  0.00000  0.10714), residuals and eigenvalues=
  3.56E-17  3.23E-17  7.98E-17  1.69E-17  2.92E-17  7.99E-17  9.11E-17  7.63E-17
  2.50E-17  1.94E-17  4.59E-08  2.10E-05
 -3.3760E+00 -1.9114E+00 -1.9110E+00 -1.9110E+00  1.0159E-01  3.4528E-01
  3.6013E-01  3.6013E-01  3.8504E-01  3.9532E-01  1.2403E+00  1.3081E+00
  prteigrs : nnsclo,ikpt=   30    4 max resid (incl. the buffer)=  2.10225E-05
 Non-SCF case, kpt    5 (  0.14286  0.00000  0.14286), residuals and eigenvalues=
  6.97E-17  4.76E-17  9.70E-17  1.18E-17  6.41E-17  3.94E-17  1.20E-17  6.25E-17
  4.48E-17  6.00E-17  1.82E-07  3.89E-07
 -3.3759E+00 -1.9119E+00 -1.9111E+00 -1.9111E+00  1.1805E-01  3.3940E-01
  3.6538E-01  3.6538E-01  3.7972E-01  3.9753E-01  1.2230E+00  1.2593E+00
  prteigrs : nnsclo,ikpt=   30    5 max resid (incl. the buffer)=  3.88895E-07
 Non-SCF case, kpt    6 (  0.17857  0.00000  0.17857), residuals and eigenvalues=
  5.70E-17  5.62E-17  4.06E-17  2.08E-17  1.31E-17  4.99E-17  4.67E-17  8.44E-17
  4.92E-17  8.34E-17  2.17E-05  1.16E-08
 -3.3757E+00 -1.9130E+00 -1.9113E+00 -1.9113E+00  1.3838E-01  3.3249E-01
  3.7128E-01  3.7128E-01  3.7354E-01  4.0041E-01  1.2100E+00  1.2109E+00
  prteigrs : nnsclo,ikpt=   30    6 max resid (incl. the buffer)=  2.16888E-05
 Non-SCF case, kpt    7 (  0.21429  0.00000  0.21429), residuals and eigenvalues=
  3.94E-17  2.79E-17  4.20E-17  9.81E-17  1.80E-17  7.25E-17  4.57E-17  4.90E-17
  7.44E-17  6.94E-17  5.19E-07  4.24E-05
 -3.3756E+00 -1.9137E+00 -1.9117E+00 -1.9117E+00  1.6196E-01  3.2486E-01
  3.6898E-01  3.7833E-01  3.7833E-01  4.0322E-01  1.1650E+00  1.1652E+00
  prteigrs : nnsclo,ikpt=   30    7 max resid (incl. the buffer)=  4.24075E-05
 Non-SCF case, kpt    8 (  0.25000  0.00000  0.25000), residuals and eigenvalues=
  7.30E-17  2.67E-17  4.63E-17  4.66E-17  1.16E-17  2.71E-17  8.23E-17  2.86E-17
  9.67E-17  7.87E-17  1.32E-07  3.83E-06
 -3.3754E+00 -1.9147E+00 -1.9122E+00 -1.9122E+00  1.8732E-01  3.1676E-01
  3.6590E-01  3.8578E-01  3.8578E-01  4.0590E-01  1.1215E+00  1.1215E+00
  prteigrs : nnsclo,ikpt=   30    8 max resid (incl. the buffer)=  3.82525E-06
 Non-SCF case, kpt    9 (  0.28571  0.00000  0.28571), residuals and eigenvalues=
  6.86E-17  9.68E-18  1.81E-17  3.56E-17  7.36E-17  7.48E-17  2.50E-17  8.03E-17
  5.66E-17  6.79E-17  9.43E-11  1.87E-06
 -3.3752E+00 -1.9155E+00 -1.9124E+00 -1.9124E+00  2.1219E-01  3.0940E-01
  3.6755E-01  3.9456E-01  3.9456E-01  4.0902E-01  1.0819E+00  1.0821E+00
  prteigrs : nnsclo,ikpt=   30    9 max resid (incl. the buffer)=  1.86627E-06
 Non-SCF case, kpt   10 (  0.32143  0.00000  0.32143), residuals and eigenvalues=
  5.12E-17  3.11E-17  1.32E-17  3.63E-17  3.51E-17  4.51E-17  7.39E-17  4.14E-17
  3.53E-17  3.30E-17  3.76E-07  8.33E-14
 -3.3750E+00 -1.9161E+00 -1.9127E+00 -1.9127E+00  2.3314E-01  3.0221E-01
  3.7743E-01  4.0325E-01  4.0325E-01  4.1192E-01  1.0137E+00  1.0464E+00
  prteigrs : nnsclo,ikpt=   30   10 max resid (incl. the buffer)=  3.76424E-07
 Non-SCF case, kpt   11 (  0.35714  0.00000  0.35714), residuals and eigenvalues=
  3.31E-17  8.85E-17  1.95E-17  2.55E-17  7.26E-18  6.79E-17  4.60E-17  5.84E-17
[...]
                       1.25000000E-01  1.25000000E-01  2.50000000E-01
                       1.00000000E-01  1.00000000E-01  2.00000000E-01
                       7.50000000E-02  7.50000000E-02  1.50000000E-01
                       5.00000000E-02  5.00000000E-02  1.00000000E-01
                       2.50000000E-02  2.50000000E-02  5.00000000E-02
                       0.00000000E+00  0.00000000E+00  0.00000000E+00
                       4.16666667E-02  4.16666667E-02  4.16666667E-02
                       8.33333333E-02  8.33333333E-02  8.33333333E-02
                       1.25000000E-01  1.25000000E-01  1.25000000E-01
                       1.66666667E-01  1.66666667E-01  1.66666667E-01
                       2.08333333E-01  2.08333333E-01  2.08333333E-01
                       2.50000000E-01  2.50000000E-01  2.50000000E-01
                       2.91666667E-01  2.91666667E-01  2.91666667E-01
                       3.33333333E-01  3.33333333E-01  3.33333333E-01
                       outvar_i_n : Printing only first  50 k-points.
           kptopt1          1
           kptopt2        -11
         kptrlatt        6   -6    6     -6    6    6     -6   -6    6
          kptrlen1     3.99110159E+01
          kptrlen2     3.00000000E+01
P           mkmem1         28
P           mkmem2        101
            natom           1
           natsph1       1
           natsph2       1
            nband1         12
            nband2         12
           nbdbuf1          0
           nbdbuf2          2
           ndtset           2
           ndivsm1          0
           ndivsm2          5
            ngfft          27      27      27
             nkpt1         28
             nkpt2        101
           nspden           2
           nsppol           2
             nsym          48
           ntypat           1
              occ      1.000000  1.000000  1.000000  1.000000  1.000000  1.000000
                       1.000000  1.000000  1.000000  1.000000  0.000000  0.000000
                       1.000000  1.000000  1.000000  1.000000  1.000000  1.000000
                       1.000000  1.000000  1.000000  1.000000  0.000000  0.000000
                       1.000000  1.000000  1.000000  1.000000  1.000000  1.000000
                       1.000000  1.000000  1.000000  1.000000  0.000000  0.000000
                       1.000000  1.000000  1.000000  1.000000  1.000000  1.000000
                       1.000000  1.000000  1.000000  1.000000  0.000000  0.000000
                       1.000000  1.000000  1.000000  1.000000  1.000000  1.000000
                       1.000000  1.000000  0.999996  0.000002  0.000000  0.000000
                       1.000000  1.000000  1.000000  1.000000  1.000000  1.000000
                       1.000000  1.000000  0.999999  0.283133  0.000000  0.000000
                       1.000000  1.000000  1.000000  1.000000  1.000000  1.000000
                       1.000000  1.000000  1.000000  0.000000  0.000000  0.000000
                       1.000000  1.000000  1.000000  1.000000  1.000000  1.000000
                       1.000000  1.000000  1.000000  1.000000  0.000000  0.000000
                       1.000000  1.000000  1.000000  1.000000  1.000000  1.000000
                       1.000000  1.000000  1.000000  0.781337  0.000000  0.000000
                       1.000000  1.000000  1.000000  1.000000  1.000000  1.000000
                       1.000000  1.000000  1.000000  0.000000  0.000000  0.000000
                       1.000000  1.000000  1.000000  1.000000  1.000000  1.000000
                       1.000000  1.000000  1.000000  0.995994  0.000000  0.000000
                       1.000000  1.000000  1.000000  1.000000  1.000000  1.000000
                       1.000000  1.000000  1.000000  0.000000  0.000000  0.000000
                       1.000000  1.000000  1.000000  1.000000  1.000000  1.000000
                       1.000000  1.000000  0.999990  0.000000  0.000000  0.000000
                       1.000000  1.000000  1.000000  1.000000  1.000000  1.000000
                       1.000000  1.000000  1.000000  0.000000  0.000000  0.000000
                       1.000000  1.000000  1.000000  1.000000  1.000000  1.000000
                       1.000000  1.000000  0.999996  0.008513  0.000000  0.000000
                       1.000000  1.000000  1.000000  1.000000  1.000000  1.000000
                       1.000000  1.000000  1.000000  0.000000  0.000000  0.000000
                       1.000000  1.000000  1.000000  1.000000  1.000000  1.000000
                       1.000000  1.000000  1.000000  0.000000  0.000000  0.000000
                       1.000000  1.000000  1.000000  1.000000  1.000000  1.000000
                       1.000000  1.000000  1.000000  0.000000  0.000000  0.000000
                       1.000000  1.000000  1.000000  1.000000  1.000000  1.000000
                       1.000000  1.000000  1.000000  1.000000  0.000000  0.000000
                       1.000000  1.000000  1.000000  1.000000  1.000000  1.000000
                       1.000000  1.000000  1.000000  0.852373  0.000000  0.000000
                       1.000000  1.000000  1.000000  1.000000  1.000000  1.000000
                       1.000000  1.000000  1.000000  0.000000  0.000000  0.000000
                       1.000000  1.000000  1.000000  1.000000  1.000000  1.000000
                       1.000000  1.000000  1.000000  0.000000  0.000000  0.000000
                       1.000000  1.000000  1.000000  1.000000  1.000000  1.000000
                       1.000000  1.000000  0.999967  0.000000  0.000000  0.000000
                       1.000000  1.000000  1.000000  1.000000  1.000000  1.000000
                       1.000000  1.000000  0.999986  0.000000  0.000000  0.000000
                       1.000000  1.000000  1.000000  1.000000  1.000000  1.000000
                       1.000000  1.000000  0.999992  0.000000  0.000000  0.000000
                       1.000000  1.000000  1.000000  1.000000  1.000000  1.000000
                       1.000000  1.000000  1.000000  1.000000  0.000000  0.000000
                       1.000000  1.000000  1.000000  1.000000  1.000000  1.000000
                       1.000000  1.000000  1.000000  1.000000  0.000000  0.000000
                       1.000000  1.000000  1.000000  1.000000  1.000000  1.000000
                       1.000000  1.000000  1.000000  1.000000  0.000000  0.000000
                       1.000000  1.000000  1.000000  1.000000  1.000000  1.000000
                       1.000000  1.000000  1.000000  0.999791  0.000000  0.000000
                       1.000000  1.000000  1.000000  1.000000  1.000000  1.000000
                       1.000000  1.000000  0.975389  0.808606  0.000000  0.000000
                       1.000000  1.000000  1.000000  1.000000  1.000000  1.000000
                       1.000000  1.000000  1.000000  0.984226  0.000000  0.000000
                       1.000000  1.000000  1.000000  1.000000  1.000000  1.000000
                       1.000000  1.000000  1.000000  0.575141  0.000000  0.000000
                       1.000000  1.000000  1.000000  1.000000  1.000000  1.000000
                       1.000000  1.000000  0.091488  0.000000  0.000000  0.000000
                       1.000000  1.000000  1.000000  1.000000  1.000000  1.000000
                       1.000000  1.000000  0.166755  0.000001  0.000000  0.000000
                       1.000000  1.000000  1.000000  1.000000  1.000000  1.000000
                       1.000000  1.000000  0.429629  0.000000  0.000000  0.000000
                       1.000000  1.000000  1.000000  1.000000  1.000000  1.000000
                       1.000000  0.999998  0.959245  0.674281  0.000000  0.000000
                       1.000000  1.000000  1.000000  1.000000  1.000000  1.000000
                       1.000000  1.000000  0.973323  0.000021  0.000000  0.000000
                       1.000000  1.000000  1.000000  1.000000  1.000000  1.000000
                       1.000000  1.000000  0.992386  0.000000  0.000000  0.000000
                       1.000000  1.000000  1.000000  1.000000  1.000000  1.000000
                       1.000000  1.000000  0.969185  0.006904  0.000000  0.000000
                       1.000000  1.000000  1.000000  1.000000  1.000000  1.000000
                       1.000000  1.000000  0.360912  0.000000  0.000000  0.000000
                       1.000000  1.000000  1.000000  1.000000  1.000000  1.000000
                       1.000000  1.000000  0.050251  0.000000  0.000000  0.000000
                       1.000000  1.000000  1.000000  1.000000  1.000000  1.000000
                       1.000000  1.000000  0.172349  0.000000  0.000000  0.000000
                       1.000000  1.000000  1.000000  1.000000  1.000000  1.000000
                       1.000000  0.951360  0.132885  0.000000  0.000000  0.000000
                       1.000000  1.000000  1.000000  1.000000  1.000000  1.000000
                       1.000000  0.999220  0.231005  0.000000  0.000000  0.000000
                       1.000000  1.000000  1.000000  1.000000  1.000000  1.000000
                       1.000000  1.000000  0.387859  0.000000  0.000000  0.000000
                       1.000000  1.000000  1.000000  1.000000  1.000000  1.000000
                       1.000000  1.000000  0.335955  0.000000  0.000000  0.000000
                       1.000000  1.000000  1.000000  1.000000  1.000000  1.000000
                       1.000000  1.000000  1.000000  0.997573  0.000000  0.000000
                       1.000000  1.000000  1.000000  1.000000  1.000000  1.000000
                       1.000000  1.000000  0.999999  0.000025  0.000000  0.000000
                       1.000000  1.000000  1.000000  1.000000  1.000000  1.000000
                       1.000000  1.000000  0.939374  0.000000  0.000000  0.000000
                       1.000000  1.000000  1.000000  1.000000  1.000000  1.000000
                       1.000000  0.999901  0.121457  0.000000  0.000000  0.000000
                       1.000000  1.000000  1.000000  1.000000  1.000000  1.000000
                       0.870338  0.484585  0.010436  0.000000  0.000000  0.000000
                       1.000000  1.000000  1.000000  1.000000  1.000000  1.000000
                       1.000000  0.975647  0.012920  0.000000  0.000000  0.000000
                       1.000000  1.000000  1.000000  1.000000  1.000000  1.000000
                       1.000000  0.999997  0.016401  0.000000  0.000000  0.000000
                       1.000000  1.000000  1.000000  1.000000  1.000000  1.000000
                       1.000000  1.000000  0.999996  0.999996  0.000000  0.000000
                       1.000000  1.000000  1.000000  1.000000  1.000000  1.000000
                       1.000000  1.000000  0.999690  0.999690  0.000000  0.000000
                       1.000000  1.000000  1.000000  1.000000  1.000000  1.000000
                       1.000000  1.000000  0.308422  0.308422  0.000000  0.000000
           occopt           7
           prtdos           3
          prtdosm1          0
          prtdosm2          1
           prtpot1          1
           prtpot2          0
           prtvha1          1
           prtvha2          0
          prtvhxc           1
           prtvxc           1
            rprim      0.0000000000E+00  5.0000000000E-01  5.0000000000E-01
                       5.0000000000E-01  0.0000000000E+00  5.0000000000E-01
                       5.0000000000E-01  5.0000000000E-01  0.0000000000E+00
           shiftk      5.00000000E-01  5.00000000E-01  5.00000000E-01
          spgroup         225
           spinat      0.0000000000E+00  0.0000000000E+00  4.0000000000E+00
           strten1     4.0488857049E-03  4.0488857049E-03  4.0488857049E-03
                       0.0000000000E+00  0.0000000000E+00  0.0000000000E+00
           symrel      1  0  0   0  1  0   0  0  1      -1  0  0   0 -1  0   0  0 -1
                       0 -1  1   0 -1  0   1 -1  0       0  1 -1   0  1  0  -1  1  0
                      -1  0  0  -1  0  1  -1  1  0       1  0  0   1  0 -1   1 -1  0
                       0  1 -1   1  0 -1   0  0 -1       0 -1  1  -1  0  1   0  0  1
                      -1  0  0  -1  1  0  -1  0  1       1  0  0   1 -1  0   1  0 -1
                       0 -1  1   1 -1  0   0 -1  0       0  1 -1  -1  1  0   0  1  0
                       1  0  0   0  0  1   0  1  0      -1  0  0   0  0 -1   0 -1  0
                       0  1 -1   0  0 -1   1  0 -1       0 -1  1   0  0  1  -1  0  1
                      -1  0  1  -1  1  0  -1  0  0       1  0 -1   1 -1  0   1  0  0
                       0 -1  0   1 -1  0   0 -1  1       0  1  0  -1  1  0   0  1 -1
                       1  0 -1   0  0 -1   0  1 -1      -1  0  1   0  0  1   0 -1  1
                       0  1  0   0  0  1   1  0  0       0 -1  0   0  0 -1  -1  0  0
                       1  0 -1   0  1 -1   0  0 -1      -1  0  1   0 -1  1   0  0  1
                       0 -1  0   0 -1  1   1 -1  0       0  1  0   0  1 -1  -1  1  0
                      -1  0  1  -1  0  0  -1  1  0       1  0 -1   1  0  0   1 -1  0
                       0  1  0   1  0  0   0  0  1       0 -1  0  -1  0  0   0  0 -1
                       0  0 -1   0  1 -1   1  0 -1       0  0  1   0 -1  1  -1  0  1
                       1 -1  0   0 -1  1   0 -1  0      -1  1  0   0  1 -1   0  1  0
                       0  0  1   1  0  0   0  1  0       0  0 -1  -1  0  0   0 -1  0
                      -1  1  0  -1  0  0  -1  0  1       1 -1  0   1  0  0   1  0 -1
                       0  0  1   0  1  0   1  0  0       0  0 -1   0 -1  0  -1  0  0
                       1 -1  0   0 -1  0   0 -1  1      -1  1  0   0  1  0   0  1 -1
                       0  0 -1   1  0 -1   0  1 -1       0  0  1  -1  0  1   0 -1  1
                      -1  1  0  -1  0  1  -1  0  0       1 -1  0   1  0 -1   1  0  0
           tolvrs1     1.00000000E-12
           tolvrs2     0.00000000E+00
           tolwfr1     0.00000000E+00
           tolwfr2     1.00000000E-16
           tsmear      7.50000000E-03 Hartree
            typat      1
              wtk1       0.02778    0.02778    0.02778    0.05556    0.02778    0.02778
                         0.05556    0.02778    0.05556    0.05556    0.02778    0.02778
                         0.02778    0.05556    0.02778    0.05556    0.05556    0.05556
                         0.02778    0.02778    0.02778    0.02778    0.02778    0.05556
                         0.05556    0.00926    0.00926    0.00926
              wtk2       1.00000    1.00000    1.00000    1.00000    1.00000    1.00000
                         1.00000    1.00000    1.00000    1.00000    1.00000    1.00000
                         1.00000    1.00000    1.00000    1.00000    1.00000    1.00000
                         1.00000    1.00000    1.00000    1.00000    1.00000    1.00000
                         1.00000    1.00000    1.00000    1.00000    1.00000    1.00000
                         1.00000    1.00000    1.00000    1.00000    1.00000    1.00000
                         1.00000    1.00000    1.00000    1.00000    1.00000    1.00000
                         1.00000    1.00000    1.00000    1.00000    1.00000    1.00000
                         1.00000    1.00000
                       outvars : Printing only first  50 k-points.
            znucl       28.00000

================================================================================


- Timing analysis has been suppressed with timopt=0



================================================================================

 Suggested references for the acknowledgment of ABINIT usage.

 The users of ABINIT have little formal obligations with respect to the ABINIT group
 (those specified in the GNU General Public License, http://www.gnu.org/copyleft/gpl.txt).
 However, it is common practice in the scientific literature,
 to acknowledge the efforts of people that have made the research possible.
 In this spirit, please find below suggested citations of work written by ABINIT developers,
 corresponding to implementations inside of ABINIT that you have used in the present run.
 Note also that it will be of great value to readers of publications presenting these results,
 to read papers enabling them to understand the theoretical formalism and details
 of the ABINIT implementation.
 For information on why they are suggested, see also http://www.abinit.org/about/?text=acknowledgments.
-
- [1] Sharing electronic structure and crystallographic data with ETSF_IO
- D. Caliste, Y. Pouillon, M.J. Verstraete, V. Olevano, X. Gonze,
- Comput. Physics Communications 179, 748 (2008).
- Comment : to be cited in case the ETSF_IO file format is used, i.e. iomode=3.
-
- [2] Recent developments in the ABINIT software package.
- Computer Phys. Comm. 205, 106 (2016).
- X.Gonze, F.Jollet, F.Abreu Araujo, D.Adams, B.Amadon, T.Applencourt,
- C.Audouze, J.-M.Beuken, J.Bieder, A.Bokhanchuk, E.Bousquet, F.Bruneval
- D.Caliste, M.Cote, F.Dahm, F.Da Pieve, M.Delaveau, M.Di Gennaro,
- B.Dorado, C.Espejo, G.Geneste, L.Genovese, A.Gerossier, M.Giantomassi,
- Y.Gillet, D.R.Hamann, L.He, G.Jomard, J.Laflamme Janssen, S.Le Roux,
- A.Levitt, A.Lherbier, F.Liu, I.Lukacevic, A.Martin, C.Martins,
- M.J.T.Oliveira, S.Ponce, Y.Pouillon, T.Rangel, G.-M.Rignanese,
- A.H.Romero, B.Rousseau, O.Rubel, A.A.Shukri, M.Stankovski, M.Torrent,
- M.J.Van Setten, B.Van Troeye, M.J.Verstraete, D.Waroquier, J.Wiktor,
- B.Xue, A.Zhou, J.W.Zwanziger.
- Comment : the fourth generic paper describing the ABINIT project.
- Note that a version of this paper, that is not formatted for Computer Phys. Comm. 
- is available at http://www.abinit.org/about/ABINIT16.pdf .
- The licence allows the authors to put it on the Web.
-
- [3] Optimized norm-conserving Vanderbilt pseudopotentials.
- D.R. Hamann, Phys. Rev. B 88, 085117 (2013).
- Comment: Some pseudopotential generated using the ONCVPSP code were used.
-
- [4] ABINIT : First-principles approach of materials and nanosystem properties.
- Computer Phys. Comm. 180, 2582-2615 (2009).
- X. Gonze, B. Amadon, P.-M. Anglade, J.-M. Beuken, F. Bottin, P. Boulanger, F. Bruneval,
- D. Caliste, R. Caracas, M. Cote, T. Deutsch, L. Genovese, Ph. Ghosez, M. Giantomassi
- S. Goedecker, D.R. Hamann, P. Hermet, F. Jollet, G. Jomard, S. Leroux, M. Mancini, S. Mazevet,
- M.J.T. Oliveira, G. Onida, Y. Pouillon, T. Rangel, G.-M. Rignanese, D. Sangalli, R. Shaltaf,
- M. Torrent, M.J. Verstraete, G. Zerah, J.W. Zwanziger
- Comment : the third generic paper describing the ABINIT project.
- Note that a version of this paper, that is not formatted for Computer Phys. Comm. 
- is available at http://www.abinit.org/about/ABINIT_CPC_v10.pdf .
- The licence allows the authors to put it on the Web.
-
- [5] A brief introduction to the ABINIT software package.
- Z. Kristallogr. 220, 558-562 (2005).
- X. Gonze, G.-M. Rignanese, M. Verstraete, J.-M. Beuken, Y. Pouillon, R. Caracas, F. Jollet,
- M. Torrent, G. Zerah, M. Mikami, Ph. Ghosez, M. Veithen, J.-Y. Raty, V. Olevano, F. Bruneval,
- L. Reining, R. Godby, G. Onida, D.R. Hamann, and D.C. Allan.
- Comment : the second generic paper describing the ABINIT project. Note that this paper
- should be cited especially if you are using the GW part of ABINIT, as several authors
- of this part are not in the list of authors of the first or third paper.
- The .pdf of the latter paper is available at http://www.abinit.org/about/zfk_0505-06_558-562.pdf.
- Note that it should not redistributed (Copyright by Oldenburg Wissenshaftverlag,
- the licence allows the authors to put it on the Web).
-
- Proc.   0 individual time (sec): cpu=        252.1  wall=        253.2

================================================================================

 Calculation completed.
.Delivered   5 WARNINGs and   2 COMMENTs to log file.
+Overall time at end (sec) : cpu=        252.1  wall=        253.2
