
.Version 8.7.1 of ABINIT 
.(MPI version, prepared for a x86_64_linux_intel14.0 computer) 

.Copyright (C) 1998-2017 ABINIT group . 
 ABINIT comes with ABSOLUTELY NO WARRANTY.
 It is free software, and you are welcome to redistribute it
 under certain conditions (GNU General Public License,
 see ~abinit/COPYING or http://www.gnu.org/copyleft/gpl.txt).

 ABINIT is a project of the Universite Catholique de Louvain,
 Corning Inc. and other collaborators, see ~abinit/doc/developers/contributors.txt .
 Please read ~abinit/doc/users/acknowledgments.html for suggested
 acknowledgments of the ABINIT effort.
 For more information, see https://www.abinit.org .

.Starting date : Mon 29 Jan 2018.
- ( at 14h30 )
  
- input  file    -> /tmp/tmp973Uas/run.abi
- output file    -> /tmp/tmp973Uas/run.abo
- root for input  files -> /tmp/tmp973Uas/indata/in
- root for output files -> /tmp/tmp973Uas/outdata/out
 
 
 Symmetries : space group I4_1/a c d (#142); Bravais tI (body-center tetrag.)
================================================================================
 Values of the parameters that define the memory need of the present run
     intxc =       0    ionmov =       0      iscf =       7    lmnmax =       7
     lnmax =       7     mgfft =     144  mpssoang =       4    mqgrid =    5580
     natom =      96  nloc_mem =       1    nspden =       1   nspinor =       1
    nsppol =       1      nsym =      16    n1xccc =       0    ntypat =       4
    occopt =       3   xclevel =       1
-    mband =         322        mffmem =           1         mkmem =           3
       mpw =      124250          nfft =     2985984          nkpt =           3
================================================================================
P This job should need less than                    2732.517 Mbytes of memory.
  Rough estimation (10% accuracy) of disk space for files :
_ WF disk file :   1831.446 Mbytes ; DEN or POT disk file :     22.783 Mbytes.
================================================================================
 
--------------------------------------------------------------------------------
------------- Echo of variables that govern the present computation ------------
--------------------------------------------------------------------------------
-
- outvars: echo of selected default values                                      
-   iomode0 =  0 , fftalg0 =312 , wfoptalg0 =  0
-
- outvars: echo of global parameters not present in the input file              
-  max_nthreads =    0
-
 -outvars: echo values of preprocessed input variables --------
            acell      1.0000000000E+00  1.0000000000E+00  1.0000000000E+00 Bohr
              amu      6.94100000E+00  1.38905500E+02  9.12240000E+01
                       1.59994000E+01
      chksymbreak           0
             ecut      5.00000000E+01 Hartree
-          fftalg         312
              kpt      2.50000000E-01  2.50000000E-01  2.50000000E-01
                      -2.50000000E-01  2.50000000E-01  2.50000000E-01
                      -2.50000000E-01 -2.50000000E-01  2.50000000E-01
         kptrlatt        2    0    0      0    2    0      0    0    2
          kptrlen      4.24545837E+01
         mem_test        0
P           mkmem           3
            natom          96
            nband         322
            ngfft         144     144     144
             nkpt           3
             nsym          16
           ntypat           4
              occ      2.000000  2.000000  2.000000  2.000000  2.000000  2.000000
                       2.000000  2.000000  2.000000  2.000000  2.000000  2.000000
                       2.000000  2.000000  2.000000  2.000000  2.000000  2.000000
                       2.000000  2.000000  2.000000  2.000000  2.000000  2.000000
                       2.000000  2.000000  2.000000  2.000000  2.000000  2.000000
                       2.000000  2.000000  2.000000  2.000000  2.000000  2.000000
                       2.000000  2.000000  2.000000  2.000000  2.000000  2.000000
                       2.000000  2.000000  2.000000  2.000000  2.000000  2.000000
                       2.000000  2.000000  2.000000  2.000000  2.000000  2.000000
                       2.000000  2.000000  2.000000  2.000000  2.000000  2.000000
                       2.000000  2.000000  2.000000  2.000000  2.000000  2.000000
                       2.000000  2.000000  2.000000  2.000000  2.000000  2.000000
                       2.000000  2.000000  2.000000  2.000000  2.000000  2.000000
                       2.000000  2.000000  2.000000  2.000000  2.000000  2.000000
                       2.000000  2.000000  2.000000  2.000000  2.000000  2.000000
                       2.000000  2.000000  2.000000  2.000000  2.000000  2.000000
                       2.000000  2.000000  2.000000  2.000000  2.000000  2.000000
                       2.000000  2.000000  2.000000  2.000000  2.000000  2.000000
                       2.000000  2.000000  2.000000  2.000000  2.000000  2.000000
                       2.000000  2.000000  2.000000  2.000000  2.000000  2.000000
                       2.000000  2.000000  2.000000  2.000000  2.000000  2.000000
                       2.000000  2.000000  2.000000  2.000000  2.000000  2.000000
                       2.000000  2.000000  2.000000  2.000000  2.000000  2.000000
                       2.000000  2.000000  2.000000  2.000000  2.000000  2.000000
                       2.000000  2.000000  2.000000  2.000000  2.000000  2.000000
                       2.000000  2.000000  2.000000  2.000000  2.000000  2.000000
                       2.000000  2.000000  2.000000  2.000000  2.000000  2.000000
                       2.000000  2.000000  2.000000  2.000000  2.000000  2.000000
                       2.000000  2.000000  2.000000  2.000000  2.000000  2.000000
                       2.000000  2.000000  2.000000  2.000000  2.000000  2.000000
                       2.000000  2.000000  2.000000  2.000000  2.000000  2.000000
                       2.000000  2.000000  2.000000  2.000000  2.000000  2.000000
                       2.000000  2.000000  2.000000  2.000000  2.000000  2.000000
                       2.000000  2.000000  2.000000  2.000000  2.000000  2.000000
                       2.000000  2.000000  2.000000  2.000000  2.000000  2.000000
                       2.000000  2.000000  2.000000  2.000000  2.000000  2.000000
                       2.000000  2.000000  2.000000  2.000000  2.000000  2.000000
                       2.000000  2.000000  2.000000  2.000000  2.000000  2.000000
                       2.000000  2.000000  2.000000  2.000000  2.000000  2.000000
                       2.000000  2.000000  2.000000  2.000000  2.000000  2.000000
                       2.000000  2.000000  2.000000  2.000000  2.000000  2.000000
                       2.000000  2.000000  2.000000  2.000000  2.000000  2.000000
                       2.000000  2.000000  2.000000  2.000000  2.000000  2.000000
                       2.000000  2.000000  2.000000  2.000000  2.000000  2.000000
                       2.000000  2.000000  2.000000  2.000000  0.000000  0.000000
                       0.000000  0.000000  0.000000  0.000000  0.000000  0.000000
                       0.000000  0.000000  0.000000  0.000000  0.000000  0.000000
                       0.000000  0.000000  0.000000  0.000000  0.000000  0.000000
                       0.000000  0.000000  0.000000  0.000000  0.000000  0.000000
                       0.000000  0.000000  0.000000  0.000000  0.000000  0.000000
                       0.000000  0.000000  0.000000  0.000000  0.000000  0.000000
                       0.000000  0.000000  0.000000  0.000000  0.000000  0.000000
                       0.000000  0.000000  0.000000  0.000000  0.000000  0.000000
                       0.000000  0.000000  0.000000  0.000000
                       2.000000  2.000000  2.000000  2.000000  2.000000  2.000000
                       2.000000  2.000000  2.000000  2.000000  2.000000  2.000000
                       2.000000  2.000000  2.000000  2.000000  2.000000  2.000000
                       2.000000  2.000000  2.000000  2.000000  2.000000  2.000000
                       2.000000  2.000000  2.000000  2.000000  2.000000  2.000000
                       2.000000  2.000000  2.000000  2.000000  2.000000  2.000000
                       2.000000  2.000000  2.000000  2.000000  2.000000  2.000000
                       2.000000  2.000000  2.000000  2.000000  2.000000  2.000000
                       2.000000  2.000000  2.000000  2.000000  2.000000  2.000000
                       2.000000  2.000000  2.000000  2.000000  2.000000  2.000000
                       2.000000  2.000000  2.000000  2.000000  2.000000  2.000000
                       2.000000  2.000000  2.000000  2.000000  2.000000  2.000000
                       2.000000  2.000000  2.000000  2.000000  2.000000  2.000000
                       2.000000  2.000000  2.000000  2.000000  2.000000  2.000000
                       2.000000  2.000000  2.000000  2.000000  2.000000  2.000000
                       2.000000  2.000000  2.000000  2.000000  2.000000  2.000000
                       2.000000  2.000000  2.000000  2.000000  2.000000  2.000000
                       2.000000  2.000000  2.000000  2.000000  2.000000  2.000000
                       2.000000  2.000000  2.000000  2.000000  2.000000  2.000000
                       2.000000  2.000000  2.000000  2.000000  2.000000  2.000000
                       2.000000  2.000000  2.000000  2.000000  2.000000  2.000000
                       2.000000  2.000000  2.000000  2.000000  2.000000  2.000000
                       2.000000  2.000000  2.000000  2.000000  2.000000  2.000000
                       2.000000  2.000000  2.000000  2.000000  2.000000  2.000000
                       2.000000  2.000000  2.000000  2.000000  2.000000  2.000000
                       2.000000  2.000000  2.000000  2.000000  2.000000  2.000000
                       2.000000  2.000000  2.000000  2.000000  2.000000  2.000000
                       2.000000  2.000000  2.000000  2.000000  2.000000  2.000000
                       2.000000  2.000000  2.000000  2.000000  2.000000  2.000000
                       2.000000  2.000000  2.000000  2.000000  2.000000  2.000000
                       2.000000  2.000000  2.000000  2.000000  2.000000  2.000000
                       2.000000  2.000000  2.000000  2.000000  2.000000  2.000000
                       2.000000  2.000000  2.000000  2.000000  2.000000  2.000000
                       2.000000  2.000000  2.000000  2.000000  2.000000  2.000000
                       2.000000  2.000000  2.000000  2.000000  2.000000  2.000000
                       2.000000  2.000000  2.000000  2.000000  2.000000  2.000000
                       2.000000  2.000000  2.000000  2.000000  2.000000  2.000000
                       2.000000  2.000000  2.000000  2.000000  2.000000  2.000000
                       2.000000  2.000000  2.000000  2.000000  2.000000  2.000000
                       2.000000  2.000000  2.000000  2.000000  2.000000  2.000000
                       2.000000  2.000000  2.000000  2.000000  2.000000  2.000000
                       2.000000  2.000000  2.000000  2.000000  2.000000  2.000000
                       2.000000  2.000000  2.000000  2.000000  2.000000  2.000000
                       2.000000  2.000000  2.000000  2.000000  2.000000  2.000000
                       2.000000  2.000000  2.000000  2.000000  0.000000  0.000000
                       0.000000  0.000000  0.000000  0.000000  0.000000  0.000000
                       0.000000  0.000000  0.000000  0.000000  0.000000  0.000000
                       0.000000  0.000000  0.000000  0.000000  0.000000  0.000000
                       0.000000  0.000000  0.000000  0.000000  0.000000  0.000000
                       0.000000  0.000000  0.000000  0.000000  0.000000  0.000000
                       0.000000  0.000000  0.000000  0.000000  0.000000  0.000000
                       0.000000  0.000000  0.000000  0.000000  0.000000  0.000000
                       0.000000  0.000000  0.000000  0.000000  0.000000  0.000000
                       0.000000  0.000000  0.000000  0.000000
                       2.000000  2.000000  2.000000  2.000000  2.000000  2.000000
                       2.000000  2.000000  2.000000  2.000000  2.000000  2.000000
                       2.000000  2.000000  2.000000  2.000000  2.000000  2.000000
                       2.000000  2.000000  2.000000  2.000000  2.000000  2.000000
                       2.000000  2.000000  2.000000  2.000000  2.000000  2.000000
                       2.000000  2.000000  2.000000  2.000000  2.000000  2.000000
                       2.000000  2.000000  2.000000  2.000000  2.000000  2.000000
                       2.000000  2.000000  2.000000  2.000000  2.000000  2.000000
                       2.000000  2.000000  2.000000  2.000000  2.000000  2.000000
                       2.000000  2.000000  2.000000  2.000000  2.000000  2.000000
                       2.000000  2.000000  2.000000  2.000000  2.000000  2.000000
                       2.000000  2.000000  2.000000  2.000000  2.000000  2.000000
                       2.000000  2.000000  2.000000  2.000000  2.000000  2.000000
                       2.000000  2.000000  2.000000  2.000000  2.000000  2.000000
                       2.000000  2.000000  2.000000  2.000000  2.000000  2.000000
                       2.000000  2.000000  2.000000  2.000000  2.000000  2.000000
                       2.000000  2.000000  2.000000  2.000000  2.000000  2.000000
                       2.000000  2.000000  2.000000  2.000000  2.000000  2.000000
                       2.000000  2.000000  2.000000  2.000000  2.000000  2.000000
                       2.000000  2.000000  2.000000  2.000000  2.000000  2.000000
                       2.000000  2.000000  2.000000  2.000000  2.000000  2.000000
                       2.000000  2.000000  2.000000  2.000000  2.000000  2.000000
                       2.000000  2.000000  2.000000  2.000000  2.000000  2.000000
                       2.000000  2.000000  2.000000  2.000000  2.000000  2.000000
                       2.000000  2.000000  2.000000  2.000000  2.000000  2.000000
                       2.000000  2.000000  2.000000  2.000000  2.000000  2.000000
                       2.000000  2.000000  2.000000  2.000000  2.000000  2.000000
                       2.000000  2.000000  2.000000  2.000000  2.000000  2.000000
                       2.000000  2.000000  2.000000  2.000000  2.000000  2.000000
                       2.000000  2.000000  2.000000  2.000000  2.000000  2.000000
                       2.000000  2.000000  2.000000  2.000000  2.000000  2.000000
                       2.000000  2.000000  2.000000  2.000000  2.000000  2.000000
                       2.000000  2.000000  2.000000  2.000000  2.000000  2.000000
                       2.000000  2.000000  2.000000  2.000000  2.000000  2.000000
                       2.000000  2.000000  2.000000  2.000000  2.000000  2.000000
                       2.000000  2.000000  2.000000  2.000000  2.000000  2.000000
                       2.000000  2.000000  2.000000  2.000000  2.000000  2.000000
                       2.000000  2.000000  2.000000  2.000000  2.000000  2.000000
                       2.000000  2.000000  2.000000  2.000000  2.000000  2.000000
                       2.000000  2.000000  2.000000  2.000000  2.000000  2.000000
                       2.000000  2.000000  2.000000  2.000000  2.000000  2.000000
                       2.000000  2.000000  2.000000  2.000000  2.000000  2.000000
                       2.000000  2.000000  2.000000  2.000000  2.000000  2.000000
                       2.000000  2.000000  2.000000  2.000000  2.000000  2.000000
                       2.000000  2.000000  2.000000  2.000000  0.000000  0.000000
                       0.000000  0.000000  0.000000  0.000000  0.000000  0.000000
                       0.000000  0.000000  0.000000  0.000000  0.000000  0.000000
                       0.000000  0.000000  0.000000  0.000000  0.000000  0.000000
                       0.000000  0.000000  0.000000  0.000000  0.000000  0.000000
                       0.000000  0.000000  0.000000  0.000000  0.000000  0.000000
                       0.000000  0.000000  0.000000  0.000000  0.000000  0.000000
                       0.000000  0.000000  0.000000  0.000000  0.000000  0.000000
                       0.000000  0.000000  0.000000  0.000000  0.000000  0.000000
                       0.000000  0.000000  0.000000  0.000000
           occopt           3
            rprim      2.0125047513E+01  0.0000000000E+00 -6.7513244481E+00
                      -1.0412578262E+01  1.7221955502E+01 -6.7513244481E+00
                       0.0000000000E+00  0.0000000000E+00  2.1227291848E+01
           shiftk      5.00000000E-01  5.00000000E-01  5.00000000E-01
          spgroup         142
           symrel      1  0  0   0  1  0   0  0  1      -1  0  0   0 -1  0   0  0 -1
                      -1 -1 -1   0  0  1   0  1  0       1  1  1   0  0 -1   0 -1  0
                       0  1  0   1  0  0  -1 -1 -1       0 -1  0  -1  0  0   1  1  1
                       0  0  1  -1 -1 -1   1  0  0       0  0 -1   1  1  1  -1  0  0
                       0  1  0   1  0  0   0  0  1       0 -1  0  -1  0  0   0  0 -1
                      -1 -1 -1   0  0  1   1  0  0       1  1  1   0  0 -1  -1  0  0
                       1  0  0   0  1  0  -1 -1 -1      -1  0  0   0 -1  0   1  1  1
                       0  0  1  -1 -1 -1   0  1  0       0  0 -1   1  1  1   0 -1  0
            tnons      0.0000000  0.0000000  0.0000000     0.2500000 -0.2500000  0.5000000
                      -0.2500000  0.2500000  0.5000000     0.5000000  0.5000000  0.0000000
                       0.0000000  0.0000000  0.0000000     0.2500000 -0.2500000  0.5000000
                      -0.2500000  0.2500000  0.5000000     0.5000000  0.5000000  0.0000000
                      -0.2500000  0.2500000  0.5000000     0.5000000  0.5000000  0.0000000
                       0.0000000 -0.0000000  0.0000000     0.2500000 -0.2500000  0.5000000
                      -0.2500000  0.2500000  0.5000000     0.5000000  0.5000000  0.0000000
                      -0.0000000 -0.0000000 -0.0000000     0.2500000 -0.2500000  0.5000000
           tolsym      1.00000000E-05
           tolvrs      1.00000000E-08
           tsmear      3.67493225E-03 Hartree
            typat      1  1  1  1  1  1  1  1  1  1  1  1  1  1  1  1  1  1  1  1
                       1  1  1  1  1  1  1  1  2  2  2  2  2  2  2  2  2  2  2  2
                       3  3  3  3  3  3  3  3  4  4  4  4  4  4  4  4  4  4  4  4
                       4  4  4  4  4  4  4  4  4  4  4  4  4  4  4  4  4  4  4  4
                       4  4  4  4  4  4  4  4  4  4  4  4  4  4  4  4
              wtk        0.25000    0.50000    0.25000
           xangst      1.9631143209E-16 -5.6913638422E-16  3.1166469965E-16
                       2.5698086834E+00  4.5567331696E+00 -3.5726470257E+00
                       6.6097625744E+00  2.2783665848E+00  2.0438524972E+00
                      -1.4701452076E+00  6.8350997544E+00  2.0438524972E+00
                       4.1601597257E+00  6.5684169457E-01 -1.7863235129E+00
                       2.9402401806E+00  5.2135748642E+00  3.1480730900E+00
                       1.2020583468E-01  2.9352082794E+00  3.8301760101E+00
                      -1.0997137104E+00  7.4919414490E+00 -2.4684264329E+00
                       5.0194115321E+00  6.1782580598E+00  2.5752898432E-01
                       6.2393310772E+00  1.6215248902E+00  6.5561314273E+00
                      -1.5903510423E+00  3.8998914750E+00 -1.7863235129E+00
                       4.7691858696E+00  8.4566246447E+00 -2.6330151214E+00
                       1.6343950590E+00  4.4650972656E+00  5.3013136450E+00
                      -2.9760480929E+00  9.0218304352E+00 -3.4360959198E+00
                      -1.1576700146E+00  8.9561952506E+00  3.4046504216E+00
                       5.2202426808E+00  4.3994620810E+00  2.1804036031E+00
                       7.5451761987E+00  2.3700024888E+00  4.4028908723E+00
                      -4.0041962134E+00  6.9267356585E+00  1.9073013912E+00
                       4.8271421737E+00  6.9923708430E+00  2.7269070700E+00
                       3.9593285770E+00  2.4356376734E+00  7.5238009142E+00
                       8.8337008435E+00  1.3648418324E+00  6.5255604634E+00
                       4.2232576916E+00  5.9215750020E+00 -2.2118491013E+00
                       8.7173178518E+00  1.4304770170E+00  9.0906094048E-01
                      -1.0645850169E+00  5.9872101866E+00 -3.1518587797E-01
                       3.4587041427E-01  5.4702579220E+00  3.1786440539E+00
                       4.9563135662E+00  9.1352475238E-01  6.8305457279E-01
                       4.6225340596E-01  5.4046227374E+00 -2.4378554690E+00
                      -4.0556019078E-01  8.4788956780E-01  2.3590383752E+00
                       1.2849043417E+00  2.2783665848E+00 -1.7863235129E+00
                       3.8547130251E+00  6.8350997544E+00 -5.3589705386E+00
                      -2.7550495493E+00  4.5567331696E+00  3.8301760101E+00
                       5.3248582327E+00 -6.4818310425E-16  3.8301760101E+00
                       3.8249716766E+00  9.0860621459E+00  2.9887655188E-01
                       6.5800212259E+00  4.5293289763E+00 -3.5312994582E+00
                      -3.4117882392E+00  5.6959164620E+00  7.6190044526E+00
                       1.9416430316E+00  1.1391832924E+00  5.6578470905E+00
                      -1.5549951745E-01  6.8625039477E+00  5.8326809397E+00
                       2.5995500319E+00  2.3057707781E+00  2.0025049296E+00
                       1.9130699935E+00  5.6959164620E+00  2.1618141677E-01
                       7.2665012643E+00  1.1391832924E+00 -1.7449759453E+00
                      -7.3507260382E-01  3.4175498772E+00  6.6384257715E+00
                      -3.4901221531E+00  7.9742830468E+00 -7.6439726427E-01
                      -3.4901221531E+00  7.9742830468E+00  4.8521022586E+00
                       4.5897856289E+00  3.4175498772E+00  4.8521022586E+00
                       1.8347360796E+00  7.9742830468E+00  3.0657787458E+00
                       4.5897856289E+00  3.4175498772E+00 -7.6439726427E-01
                       1.8347360796E+00  7.9742830468E+00 -2.5507207771E+00
                      -7.3507260382E-01  3.4175498772E+00  1.0219262486E+00
                      -1.1224856695E+00  2.3315618878E+00  8.4199199849E+00
                       5.5938220689E+00  6.8882950574E+00 -3.4031450466E+00
                       6.3121032584E+00  6.0724940046E+00  1.6895013034E+00
                       4.4705754355E+00  1.5157608350E+00  5.7860015020E+00
                      -3.4765953817E-01  4.5035378666E+00  4.8569315582E+00
                      -1.9243499097E+00  9.0602710362E+00 -1.6982965076E+00
                       2.8674679994E+00  7.6260574980E-01  8.0147032139E+00
                       4.7089958222E+00  5.3193389194E+00  3.9182030153E+00
                       1.8241311408E+00  6.2650706618E+00  4.3234197862E+00
                       3.4008215124E+00  1.7083374922E+00 -3.5435119379E-01
                       3.7756909075E-01  7.0808717147E+00 -1.2930797367E+00
                      -1.4639587321E+00  2.5241385450E+00  2.8034204619E+00
                       7.3554401170E+00  5.7002909259E-01  5.3807847311E+00
                       5.7787497454E+00  5.1267622622E+00 -1.1744433347E+00
                       3.2919030684E+00  8.8676943790E+00 -3.8083618176E+00
                      -6.1864754876E-03  4.3109612094E+00 -7.5956796475E-01
                       3.8299336823E-01  7.1679326586E+00  1.7497562797E+00
                       6.2991982560E+00  2.6111994890E+00  1.9340255974E-01
                       4.1824799815E+00  4.4631743242E+00  6.6494460227E+00
                      -5.0645941263E+00  9.0199074938E+00  5.8099020827E+00
                       3.2864787909E+00  8.7806334350E+00  4.3818012119E+00
                       2.8803730018E+00  4.2239002654E+00 -1.7221970883E+00
                       4.9970912763E+00  2.3719254302E+00  3.0547584946E+00
                      -1.9156501800E+00  6.9286585999E+00  3.8943024346E+00
                       7.8590163294E+00  3.6099989459E+00  2.5893002197E+00
                      -2.3845943469E+00  8.1667321155E+00  1.0329464997E+00
                       4.9318446425E-01  1.7580241107E+00  5.4544772247E-01
                       1.8958268219E+00  6.3147572803E+00 -3.8667432433E+00
                       1.3205549283E+00  3.2251008085E+00  7.1149042976E+00
                      -4.5956499594E+00  7.7818339781E+00 -2.5617410283E+00
                      -1.9633296719E+00  5.0770756437E+00  1.4984047747E+00
                       7.2837444359E+00  5.2034247410E-01  2.3379487147E+00
                       3.2371340457E+00  7.0950704952E+00  1.7434740681E+00
                       5.3973969304E+00  2.5383373256E+00 -2.5145326023E+00
                       6.6212367834E+00  3.6537618113E+00  5.4049445105E+00
                      -4.6603591580E+00  8.2104949809E+00  3.1019669206E+00
                       4.3233811346E-01  8.8534955984E+00  4.3880834235E+00
                       3.7821743274E+00  4.2967624288E+00  9.8573807376E-01
                       2.5583344744E+00  3.1813379432E+00  4.2992600068E+00
                      -2.3198851483E+00  7.7380711128E+00  6.6022375967E+00
                      -9.8920879033E-01  5.2781733920E+00  7.6190986837E+00
                       1.1710540944E+00  7.2144022235E-01  3.3610920133E+00
                       9.8863951600E-01  4.1627489063E+00  2.0025991608E+00
                       3.5676004008E-01  8.7194820759E+00 -3.8730254548E+00
                      -4.8093641730E-01  1.5569263625E+00  5.6577528593E+00
                      -2.6411993020E+00  6.1136595321E+00 -1.3172395162E+00
                       8.1909317418E+00  2.6723508481E+00 -3.5313936893E+00
                       3.3127121190E+00  7.2290840177E+00 -1.2284160994E+00
            xcart      3.7097484340E-16 -1.0755118984E-15  5.8896092762E-16
                       4.8562346255E+00  8.6109777512E+00 -6.7513244481E+00
                       1.2490641069E+01  4.3054888756E+00  3.8623214757E+00
                      -2.7781718180E+00  1.2916466627E+01  3.8623214757E+00
                       7.8615625506E+00  1.2412509154E+00 -3.3756622240E+00
                       5.5562487062E+00  9.8522286666E+00  5.9489959864E+00
                       2.2715610712E-01  5.5467397910E+00  7.2379836998E+00
                      -2.0781577373E+00  1.4157717542E+01 -4.6646499374E+00
                       9.4853131439E+00  1.1675215711E+01  4.8665925165E-01
                       1.1790626988E+01  3.0642379602E+00  1.2389292889E+01
                      -3.0053279251E+00  7.3697268358E+00 -3.3756622240E+00
                       9.0124551703E+00  1.5980704587E+01 -4.9756774831E+00
                       3.0885590545E+00  8.4378109886E+00  1.0018030933E+01
                      -5.6239158539E+00  1.7048788740E+01 -6.4932802547E+00
                      -2.1876792798E+00  1.6924756216E+01  6.4338568750E+00
                       9.8648290139E+00  8.3137784651E+00  4.1203656691E+00
                       1.4258316640E+01  4.4786556382E+00  8.3202579417E+00
                      -7.5668342256E+00  1.3089633389E+01  3.6042772823E+00
                       9.1219767128E+00  1.3213665913E+01  5.1531075521E+00
                       7.4820466806E+00  4.6026881617E+00  1.4217923206E+01
                       1.6693275334E+01  2.5791772780E+00  1.2331522139E+01
                       7.9808004257E+00  1.1190155029E+01 -4.1797890488E+00
                       1.6473343353E+01  2.7032098015E+00  1.7178762156E+00
                      -2.0117741270E+00  1.1314187553E+01 -5.9561499031E-01
                       6.5360036044E-01  1.0337289349E+01  6.0067667358E+00
                       9.3660752688E+00  1.7263115976E+00  1.2907860764E+00
                       8.7353234127E-01  1.0213256825E+01 -4.6068791880E+00
                      -7.6639769098E-01  1.6022790741E+00  4.4579364660E+00
                       2.4281173128E+00  4.3054888756E+00 -3.3756622240E+00
                       7.2843519382E+00  1.2916466627E+01 -1.0126986672E+01
                      -5.2062891307E+00  8.6109777512E+00  7.2379836997E+00
                       1.0062523756E+01 -1.2248885510E-15  7.2379836997E+00
                       7.2281489348E+00  1.7170169082E+01  5.6479483059E-01
                       1.2434438066E+01  8.5591913310E+00 -6.6731888692E+00
                      -6.4473453956E+00  1.0763722189E+01  1.4397831821E+01
                       3.6691735776E+00  2.1527444378E+00  1.0691781503E+01
                      -2.9385150177E-01  1.2968253047E+01  1.1022169597E+01
                       4.9124376290E+00  4.3572752958E+00  3.7841858968E+00
                       3.6151783607E+00  1.0763722189E+01  4.0852367271E-01
                       1.3731697334E+01  2.1527444378E+00 -3.2975266451E+00
                      -1.3890859090E+00  6.4582333134E+00  1.2544806662E+01
                      -6.5953750398E+00  1.5069211065E+01 -1.4445014862E+00
                      -6.5953750398E+00  1.5069211065E+01  9.1691444376E+00
                       8.6734378473E+00  6.4582333134E+00  9.1691444376E+00
                       3.4671487165E+00  1.5069211065E+01  5.7934822135E+00
                       8.6734378472E+00  6.4582333134E+00 -1.4445014862E+00
                       3.4671487165E+00  1.5069211065E+01 -4.8201637103E+00
                      -1.3890859090E+00  6.4582333134E+00  1.9311607379E+00
                      -2.1211905034E+00  4.4060134299E+00  1.5911342832E+01
                       1.0570791746E+01  1.3016991181E+01 -6.4310121286E+00
                       1.1928146481E+01  1.1475350612E+01  3.1926947646E+00
                       8.4481632295E+00  2.8643728611E+00  1.0933958243E+01
                      -6.5698131463E-01  8.5104531969E+00  9.1782704911E+00
                      -3.6364943133E+00  1.7121430948E+01 -3.2093152919E+00
                       5.4187292136E+00  1.4411160145E+00  1.5145594111E+01
                       8.8987124650E+00  1.0052093766E+01  7.4043306319E+00
                       3.4471082865E+00  1.1839267754E+01  8.1700793535E+00
                       6.4266212852E+00  3.2282900028E+00 -6.6962671113E-01
                       7.1350217776E-01  1.3380908323E+01 -2.4435665703E+00
                      -2.7664810736E+00  4.7699305716E+00  5.2976969084E+00
                       1.3899767408E+01  1.0771988728E+00  1.0168209522E+01
                       1.0920254409E+01  9.6881766240E+00 -2.2193762613E+00
                       6.2207952552E+00  1.6757513806E+01 -7.1967608502E+00
                      -1.1690744399E-02  8.1465360552E+00 -1.4353754327E+00
                       7.2375257666E-01  1.3545429664E+01  3.3065601679E+00
                       1.1903759561E+01  4.9344519125E+00  3.6547787131E-01
                       7.9037417213E+00  8.4341771560E+00  1.2565631918E+01
                      -9.5706958729E+00  1.7045154907E+01  1.0979123795E+01
                       6.2105448563E+00  1.6592992465E+01  8.2804042592E+00
                       5.4431161340E+00  7.9820147143E+00 -3.2544808437E+00
                       9.4431339732E+00  4.4822894708E+00  5.7726569570E+00
                      -3.6200542066E+00  1.3093267222E+01  7.3591650801E+00
                       1.4851388537E+01  6.8219093477E+00  4.8930682910E+00
                      -4.5062302536E+00  1.5432887099E+01  1.9519859944E+00
                       9.3198357043E-01  3.3221841042E+00  1.0307468153E+00
                       3.5825934887E+00  1.1933161855E+01 -7.3070857559E+00
                       2.4954871580E+00  6.0945572791E+00  1.3445220584E+01
                      -8.6845198259E+00  1.4705535030E+01 -4.8409889668E+00
                      -3.7101553884E+00  9.5942825226E+00  2.8315746604E+00
                       1.3764282206E+01  9.8330477137E-01  4.4180827835E+00
                       6.1172968017E+00  1.3407740129E+01  3.2946885085E+00
                       1.0199602029E+01  4.7967623783E+00 -4.7517779706E+00
                       1.2512324182E+01  6.9046091781E+00  1.0213864888E+01
                      -8.8068024894E+00  1.5515586929E+01  5.8618679532E+00
                       8.1700063125E-01  1.6730682000E+01  8.2922759186E+00
                       7.1472736656E+00  8.1197042485E+00  1.8627749982E+00
                       4.8345515130E+00  6.0118574487E+00  8.1244239868E+00
                      -4.3839475901E+00  1.4622835200E+01  1.2476420922E+01
                      -1.8693337020E+00  9.9743021927E+00  1.4398009892E+01
                       2.2129715252E+00  1.3633244415E+00  6.3515434127E+00
                       1.8682579294E+00  7.8664553929E+00  3.7843639679E+00
                       6.7417877091E-01  1.6477433144E+01 -7.3189574153E+00
                      -9.0883811603E-01  2.9421644341E+00  1.0691603432E+01
                      -4.9911433432E+00  1.1553142185E+01 -2.4892219370E+00
                       1.5478617765E+01  5.0500112339E+00 -6.6733669403E+00
                       6.2601186621E+00  1.3660988985E+01 -2.3213700052E+00
             xred     -1.3877787808E-17 -6.2450045135E-17  3.4694469520E-18
                       5.0000000000E-01  5.0000000000E-01  1.0408340856E-17
                       7.5000000000E-01  2.5000000000E-01  5.0000000000E-01
                       2.5000000000E-01  7.5000000000E-01  5.0000000000E-01
                       4.2792625000E-01  7.2073750000E-02  3.4694469520E-18
                       5.7207375000E-01  5.7207375000E-01  6.4414750000E-01
                       1.7792625000E-01  3.2207375000E-01  5.0000000000E-01
                       3.2207375000E-01  8.2207375000E-01  1.4414750000E-01
                       8.2207375000E-01  6.7792625000E-01  5.0000000000E-01
                       6.7792625000E-01  1.7792625000E-01  8.5585250000E-01
                       7.2073750000E-02  4.2792625000E-01  3.4694469520E-18
                       9.2792625000E-01  9.2792625000E-01  3.5585250000E-01
                       4.0696300000E-01  4.8994500000E-01  7.5720200000E-01
                       2.3274300000E-01  9.8994500000E-01  8.2982000000E-02
                       3.9976100000E-01  9.8274300000E-01  7.4279800000E-01
                       7.3994500000E-01  4.8274300000E-01  5.8298200000E-01
                       8.4303700000E-01  2.6005500000E-01  7.4279800000E-01
                       1.7257000000E-02  7.6005500000E-01  4.1701800000E-01
                       8.5023900000E-01  7.6725700000E-01  7.5720200000E-01
                       5.1005500000E-01  2.6725700000E-01  9.1701800000E-01
                       9.0696300000E-01  1.4976100000E-01  9.1701800000E-01
                       7.3274300000E-01  6.4976100000E-01  2.4279800000E-01
                       8.9976100000E-01  1.5696300000E-01  4.1701800000E-01
                       2.3994500000E-01  6.5696300000E-01  2.5720200000E-01
                       3.4303700000E-01  6.0023900000E-01  5.8298200000E-01
                       5.1725700000E-01  1.0023900000E-01  2.5720200000E-01
                       3.5023900000E-01  5.9303700000E-01  8.2982000000E-02
                       1.0055000000E-02  9.3037000000E-02  2.4279800000E-01
                       2.5000000000E-01  2.5000000000E-01  3.4694469520E-18
                       7.5000000000E-01  7.5000000000E-01  6.9388939039E-18
                      -1.3877787808E-17  5.0000000000E-01  5.0000000000E-01
                       5.0000000000E-01 -7.1123662515E-17  5.0000000000E-01
                       8.7500000000E-01  9.9699300000E-01  6.2199300000E-01
                       8.7500000000E-01  4.9699300000E-01  1.2199300000E-01
                       3.0070000000E-03  6.2500000000E-01  8.7800700000E-01
                       2.4699300000E-01  1.2500000000E-01  6.2199300000E-01
                       3.7500000000E-01  7.5300700000E-01  8.7800700000E-01
                       3.7500000000E-01  2.5300700000E-01  3.7800700000E-01
                       5.0300700000E-01  6.2500000000E-01  3.7800700000E-01
                       7.4699300000E-01  1.2500000000E-01  1.2199300000E-01
                       1.2500000000E-01  3.7500000000E-01  7.5000000000E-01
                       1.2500000000E-01  8.7500000000E-01  2.5000000000E-01
                       1.2500000000E-01  8.7500000000E-01  7.5000000000E-01
                       6.2500000000E-01  3.7500000000E-01  7.5000000000E-01
                       6.2500000000E-01  8.7500000000E-01  7.5000000000E-01
                       6.2500000000E-01  3.7500000000E-01  2.5000000000E-01
                       6.2500000000E-01  8.7500000000E-01  2.5000000000E-01
                       1.2500000000E-01  3.7500000000E-01  2.5000000000E-01
                       2.6968000000E-02  2.5583700000E-01  8.3951600000E-01
                       9.1632100000E-01  7.5583700000E-01  2.2886900000E-01
                       9.3745200000E-01  6.6632100000E-01  6.6048400000E-01
                       5.0583700000E-01  1.6632100000E-01  7.2886900000E-01
                       2.2303200000E-01  4.9416300000E-01  6.6048400000E-01
                       3.3367900000E-01  9.9416300000E-01  2.7113100000E-01
                       3.1254800000E-01  8.3679000000E-02  8.3951600000E-01
                       7.4416300000E-01  5.8367900000E-01  7.7113100000E-01
                       5.2696800000E-01  6.8745200000E-01  7.7113100000E-01
                       4.1632100000E-01  1.8745200000E-01  1.6048400000E-01
                       4.3745200000E-01  7.7696800000E-01  2.7113100000E-01
                       5.8370000000E-03  2.7696800000E-01  3.3951600000E-01
                       7.2303200000E-01  6.2548000000E-02  7.2886900000E-01
                       8.3367900000E-01  5.6254800000E-01  3.3951600000E-01
                       8.1254800000E-01  9.7303200000E-01  2.2886900000E-01
                       2.4416300000E-01  4.7303200000E-01  1.6048400000E-01
                       4.4290400000E-01  7.8652100000E-01  5.4678700000E-01
                       7.3973400000E-01  2.8652100000E-01  3.4361700000E-01
                       6.4611700000E-01  4.8973400000E-01  9.5321300000E-01
                       3.6521000000E-02  9.8973400000E-01  8.4361700000E-01
                       8.0709600000E-01  9.6347900000E-01  9.5321300000E-01
                       5.1026600000E-01  4.6347900000E-01  1.5638300000E-01
                       6.0388300000E-01  2.6026600000E-01  5.4678700000E-01
                       2.1347900000E-01  7.6026600000E-01  6.5638300000E-01
                       9.4290400000E-01  3.9611700000E-01  6.5638300000E-01
                       2.3973400000E-01  8.9611700000E-01  4.5321300000E-01
                       1.4611700000E-01  1.9290400000E-01  1.5638300000E-01
                       5.3652100000E-01  6.9290400000E-01  4.6787000000E-02
                       3.0709600000E-01  3.5388300000E-01  8.4361700000E-01
                       1.0266000000E-02  8.5388300000E-01  4.6787000000E-02
                       1.0388300000E-01  5.5709600000E-01  3.4361700000E-01
                       7.1347900000E-01  5.7096000000E-02  4.5321300000E-01
                       7.0676900000E-01  7.7852600000E-01  6.2760700000E-01
                       6.5091900000E-01  2.7852600000E-01  7.1757000000E-02
                       8.2916200000E-01  4.0091900000E-01  8.7239300000E-01
                       2.8526000000E-02  9.0091900000E-01  5.7175700000E-01
                       5.4323100000E-01  9.7147400000E-01  8.7239300000E-01
                       5.9908100000E-01  4.7147400000E-01  4.2824300000E-01
                       4.2083800000E-01  3.4908100000E-01  6.2760700000E-01
                       2.2147400000E-01  8.4908100000E-01  9.2824300000E-01
                       2.0676900000E-01  5.7916200000E-01  9.2824300000E-01
                       1.5091900000E-01  7.9162000000E-02  3.7239300000E-01
                       3.2916200000E-01  4.5676900000E-01  4.2824300000E-01
                       5.2852600000E-01  9.5676900000E-01  1.2760700000E-01
                       4.3231000000E-02  1.7083800000E-01  5.7175700000E-01
                       9.9081000000E-02  6.7083800000E-01  1.2760700000E-01
                       9.2083800000E-01  2.9323100000E-01  7.1757000000E-02
                       7.2147400000E-01  7.9323100000E-01  3.7239300000E-01
            znucl        3.00000   57.00000   40.00000    8.00000
 
================================================================================
 
 chkinp: Checking input parameters for consistency.
 
 abinit : before driver, prtvol=0, debugging mode => will skip driver
 
== END DATASET(S) ==============================================================
================================================================================
 
 abinit : before driver, prtvol=0, debugging mode => will skip outvars


- Timing analysis has been suppressed with timopt=0


 
 abinit : before driver, prtvol=0, debugging mode => will skip acknowledgments
-
- Proc.   0 individual time (sec): cpu=          0.7  wall=          0.7
 
================================================================================
 
 Calculation completed.
.Delivered   1 WARNINGs and   0 COMMENTs to log file.
+Overall time at end (sec) : cpu=          0.7  wall=          0.7
