
.Version 8.5.1 of ABINIT 
.(MPI version, prepared for a x86_64_darwin16.6.0_gnu6.0 computer) 

.Copyright (C) 1998-2017 ABINIT group . 
 ABINIT comes with ABSOLUTELY NO WARRANTY.
 It is free software, and you are welcome to redistribute it
 under certain conditions (GNU General Public License,
 see ~abinit/COPYING or http://www.gnu.org/copyleft/gpl.txt).

 ABINIT is a project of the Universite Catholique de Louvain,
 Corning Inc. and other collaborators, see ~abinit/doc/developers/contributors.txt .
 Please read ~abinit/doc/users/acknowledgments.html for suggested
 acknowledgments of the ABINIT effort.
 For more information, see http://www.abinit.org .

.Starting date : Thu 29 Jun 2017.
- ( at 09h56 )
  
- input  file    -> /var/folders/89/47k8wfdj11x035svqf8qnl4m0000gn/T/tmpHtqeeT/run.abi
- output file    -> /var/folders/89/47k8wfdj11x035svqf8qnl4m0000gn/T/tmpHtqeeT/run.abo
- root for input  files -> /var/folders/89/47k8wfdj11x035svqf8qnl4m0000gn/T/tmpHtqeeT/indata/in
- root for output files -> /var/folders/89/47k8wfdj11x035svqf8qnl4m0000gn/T/tmpHtqeeT/outdata/out


 Symmetries : space group Fd -3 m (#227); Bravais cF (face-center cubic)
================================================================================
 Values of the parameters that define the memory need of the present run
     intxc =       0    ionmov =       0      iscf =       7    lmnmax =       6
     lnmax =       6     mgfft =      18  mpssoang =       3    mqgrid =    3001
     natom =       2  nloc_mem =       1    nspden =       1   nspinor =       1
    nsppol =       1      nsym =      48    n1xccc =    2501    ntypat =       1
    occopt =       1   xclevel =       2
-    mband =           8        mffmem =           1         mkmem =          29
       mpw =         202          nfft =        5832          nkpt =          29
================================================================================
P This job should need less than                       3.389 Mbytes of memory.
  Rough estimation (10% accuracy) of disk space for files :
_ WF disk file :      0.717 Mbytes ; DEN or POT disk file :      0.046 Mbytes.
================================================================================

--------------------------------------------------------------------------------
------------- Echo of variables that govern the present computation ------------
--------------------------------------------------------------------------------
-
- outvars: echo of selected default values                                      
-   iomode0 =  0 , fftalg0 =112 , wfoptalg0 =  0
-
- outvars: echo of global parameters not present in the input file              
-  max_nthreads =    0
-
 -outvars: echo values of preprocessed input variables --------
-          iomode           3
            acell      1.0000000000E+00  1.0000000000E+00  1.0000000000E+00 Bohr
              amu      2.80855000E+01
             ecut      6.00000000E+00 Hartree
-          fftalg         112
           istwfk        1    0    0    0    1    0    0    0    0    0
                         0    0    0    0    0    0    0    0    0    0
                         1    0    0    0    0    0    0    0    0
              ixc          11
              kpt      0.00000000E+00  0.00000000E+00  0.00000000E+00
                       1.25000000E-01  0.00000000E+00  0.00000000E+00
                       2.50000000E-01  0.00000000E+00  0.00000000E+00
                       3.75000000E-01  0.00000000E+00  0.00000000E+00
                       5.00000000E-01  0.00000000E+00  0.00000000E+00
                       1.25000000E-01  1.25000000E-01  0.00000000E+00
                       2.50000000E-01  1.25000000E-01  0.00000000E+00
                       3.75000000E-01  1.25000000E-01  0.00000000E+00
                       5.00000000E-01  1.25000000E-01  0.00000000E+00
                      -3.75000000E-01  1.25000000E-01  0.00000000E+00
                      -2.50000000E-01  1.25000000E-01  0.00000000E+00
                      -1.25000000E-01  1.25000000E-01  0.00000000E+00
                       2.50000000E-01  2.50000000E-01  0.00000000E+00
                       3.75000000E-01  2.50000000E-01  0.00000000E+00
                       5.00000000E-01  2.50000000E-01  0.00000000E+00
                      -3.75000000E-01  2.50000000E-01  0.00000000E+00
                      -2.50000000E-01  2.50000000E-01  0.00000000E+00
                       3.75000000E-01  3.75000000E-01  0.00000000E+00
                       5.00000000E-01  3.75000000E-01  0.00000000E+00
                      -3.75000000E-01  3.75000000E-01  0.00000000E+00
                       5.00000000E-01  5.00000000E-01  0.00000000E+00
                       3.75000000E-01  2.50000000E-01  1.25000000E-01
                       5.00000000E-01  2.50000000E-01  1.25000000E-01
                      -3.75000000E-01  2.50000000E-01  1.25000000E-01
                       5.00000000E-01  3.75000000E-01  1.25000000E-01
                      -3.75000000E-01  3.75000000E-01  1.25000000E-01
                      -2.50000000E-01  3.75000000E-01  1.25000000E-01
                      -3.75000000E-01  5.00000000E-01  1.25000000E-01
                      -2.50000000E-01  5.00000000E-01  2.50000000E-01
         kptrlatt        8    0    0      0    8    0      0    0    8
          kptrlen      5.84601840E+01
P           mkmem          29
            natom           2
            nband           8
            ngfft          18      18      18
             nkpt          29
             nsym          48
           ntypat           1
              occ      2.000000  2.000000  2.000000  2.000000  0.000000  0.000000
                       0.000000  0.000000
            rprim      6.3285005521E+00  0.0000000000E+00  3.6537614973E+00
                       2.1095001840E+00  5.9665675402E+00  3.6537614973E+00
                       0.0000000000E+00  0.0000000000E+00  7.3075229946E+00
          spgroup         227
           symrel      1  0  0   0  1  0   0  0  1      -1  0  0   0 -1  0   0  0 -1
                       0 -1  1   0 -1  0   1 -1  0       0  1 -1   0  1  0  -1  1  0
                      -1  0  0  -1  0  1  -1  1  0       1  0  0   1  0 -1   1 -1  0
                       0  1 -1   1  0 -1   0  0 -1       0 -1  1  -1  0  1   0  0  1
                      -1  0  0  -1  1  0  -1  0  1       1  0  0   1 -1  0   1  0 -1
                       0 -1  1   1 -1  0   0 -1  0       0  1 -1  -1  1  0   0  1  0
                       1  0  0   0  0  1   0  1  0      -1  0  0   0  0 -1   0 -1  0
                       0  1 -1   0  0 -1   1  0 -1       0 -1  1   0  0  1  -1  0  1
                      -1  0  1  -1  1  0  -1  0  0       1  0 -1   1 -1  0   1  0  0
                       0 -1  0   1 -1  0   0 -1  1       0  1  0  -1  1  0   0  1 -1
                       1  0 -1   0  0 -1   0  1 -1      -1  0  1   0  0  1   0 -1  1
                       0  1  0   0  0  1   1  0  0       0 -1  0   0  0 -1  -1  0  0
                       1  0 -1   0  1 -1   0  0 -1      -1  0  1   0 -1  1   0  0  1
                       0 -1  0   0 -1  1   1 -1  0       0  1  0   0  1 -1  -1  1  0
                      -1  0  1  -1  0  0  -1  1  0       1  0 -1   1  0  0   1 -1  0
                       0  1  0   1  0  0   0  0  1       0 -1  0  -1  0  0   0  0 -1
                       0  0 -1   0  1 -1   1  0 -1       0  0  1   0 -1  1  -1  0  1
                       1 -1  0   0 -1  1   0 -1  0      -1  1  0   0  1 -1   0  1  0
                       0  0  1   1  0  0   0  1  0       0  0 -1  -1  0  0   0 -1  0
                      -1  1  0  -1  0  0  -1  0  1       1 -1  0   1  0  0   1  0 -1
                       0  0  1   0  1  0   1  0  0       0  0 -1   0 -1  0  -1  0  0
                       1 -1  0   0 -1  0   0 -1  1      -1  1  0   0  1  0   0  1 -1
                       0  0 -1   1  0 -1   0  1 -1       0  0  1  -1  0  1   0 -1  1
                      -1  1  0  -1  0  1  -1  0  0       1 -1  0   1  0 -1   1  0  0
           timopt          -1
            tnons      0.0000000  0.0000000  0.0000000     0.2500000  0.2500000  0.2500000
                       0.0000000  0.0000000  0.0000000     0.2500000  0.2500000  0.2500000
                       0.0000000  0.0000000  0.0000000     0.2500000  0.2500000  0.2500000
                       0.0000000  0.0000000  0.0000000     0.2500000  0.2500000  0.2500000
                       0.0000000  0.0000000  0.0000000     0.2500000  0.2500000  0.2500000
                       0.0000000  0.0000000  0.0000000     0.2500000  0.2500000  0.2500000
                       0.0000000  0.0000000  0.0000000     0.2500000  0.2500000  0.2500000
                       0.0000000  0.0000000  0.0000000     0.2500000  0.2500000  0.2500000
                       0.0000000  0.0000000  0.0000000     0.2500000  0.2500000  0.2500000
                       0.0000000  0.0000000  0.0000000     0.2500000  0.2500000  0.2500000
                       0.0000000  0.0000000  0.0000000     0.2500000  0.2500000  0.2500000
                       0.0000000  0.0000000  0.0000000     0.2500000  0.2500000  0.2500000
                       0.0000000  0.0000000  0.0000000     0.2500000  0.2500000  0.2500000
                       0.0000000  0.0000000  0.0000000     0.2500000  0.2500000  0.2500000
                       0.0000000  0.0000000  0.0000000     0.2500000  0.2500000  0.2500000
                       0.0000000  0.0000000  0.0000000     0.2500000  0.2500000  0.2500000
                       0.0000000  0.0000000  0.0000000     0.2500000  0.2500000  0.2500000
                       0.0000000  0.0000000  0.0000000     0.2500000  0.2500000  0.2500000
                       0.0000000  0.0000000  0.0000000     0.2500000  0.2500000  0.2500000
                       0.0000000  0.0000000  0.0000000     0.2500000  0.2500000  0.2500000
                       0.0000000  0.0000000  0.0000000     0.2500000  0.2500000  0.2500000
                       0.0000000  0.0000000  0.0000000     0.2500000  0.2500000  0.2500000
                       0.0000000  0.0000000  0.0000000     0.2500000  0.2500000  0.2500000
                       0.0000000  0.0000000  0.0000000     0.2500000  0.2500000  0.2500000
           tolvrs      1.00000000E-06
            typat      1  1
              wtk        0.00195    0.01563    0.01563    0.01563    0.00781    0.01172
                         0.04688    0.04688    0.04688    0.04688    0.04688    0.02344
                         0.01172    0.04688    0.04688    0.04688    0.02344    0.01172
                         0.04688    0.02344    0.00586    0.04688    0.09375    0.04688
                         0.04688    0.09375    0.04688    0.02344    0.01172
           xangst      0.0000000000E+00  0.0000000000E+00  0.0000000000E+00
                       1.1162994189E+00  7.8934288895E-01  1.9334873100E+00
            xcart      0.0000000000E+00  0.0000000000E+00  0.0000000000E+00
                       2.1095001840E+00  1.4916418850E+00  3.6537614973E+00
             xred      0.0000000000E+00  0.0000000000E+00  0.0000000000E+00
                       2.5000000000E-01  2.5000000000E-01  2.5000000000E-01
            znucl       14.00000

================================================================================

 chkinp: Checking input parameters for consistency.

 abinit : before driver, prtvol=0, debugging mode => will skip driver

== END DATASET(S) ==============================================================
================================================================================

 abinit : before driver, prtvol=0, debugging mode => will skip outvars

 Test the timer : 
  a combined call timab(*,1,tsec) + timab(*,2,tsec) is 
- CPU time =    1.1403E-06 sec,    Wall time =    1.1404E-06 sec

- Total cpu        time (s,m,h):          0.3        0.00      0.000
- Total wall clock time (s,m,h):          0.3        0.01      0.000
-
- For major independent code sections, cpu and wall times (sec),
-  as well as % of the time and number of calls for node 0-
-<BEGIN_TIMER mpi_nprocs = 1, omp_nthreads = 1, mpi_rank = 0>
- cpu_time =            0.3, wall_time =            0.3
-
- routine                        cpu     %       wall     %      number of calls  Gflops    Speedup Efficacity
-                                                                  (-1=no count)
- timing timab                   0.148  55.9      0.148  43.8             13      -1.00        1.00       1.00
- invars2                        0.050  18.9      0.053  15.7              1      -1.00        0.94       0.94
- abinit(2)                      0.031  11.5      0.046  13.5              1      -1.00        0.67       0.67
- kpgsph                         0.000   0.1      0.000   0.1             29      -1.00        0.70       0.70
- status                         0.000   0.0      0.000   0.0              1      -1.00        1.09       1.09
- others (108)                   0.000   0.0      0.000   0.0             -1      -1.00        0.00       0.00
-<END_TIMER>
-
- subtotal                       0.229  86.4      0.247  73.0                                  0.93       0.93

- For major independent code sections, cpu and wall times (sec),
- as well as % of the total time and number of calls 

-<BEGIN_TIMER mpi_nprocs = 1, omp_nthreads = 1, mpi_rank = world>
- cpu_time =           0.3, wall_time =           0.3
-
- routine                         cpu     %       wall     %      number of calls Gflops    Speedup Efficacity
-                                                                  (-1=no count)
- timing timab                   0.148  55.9      0.148  43.8             13      -1.00        1.00       1.00
- invars2                        0.050  18.9      0.053  15.7              1      -1.00        0.94       0.94
- abinit(2)                      0.031  11.5      0.046  13.5              1      -1.00        0.67       0.67
- kpgsph                         0.000   0.1      0.000   0.1             29      -1.00        0.70       0.70
- status                         0.000   0.0      0.000   0.0              1      -1.00        1.09       1.09
- others (108)                   0.000   0.0      0.000   0.0             -1      -1.00        0.00       0.00
-<END_TIMER>

- subtotal                       0.229  86.4      0.247  73.0                                  0.93       0.93

 Partitioning of abinit
- abinit                         0.265 100.0      0.338 100.0              1                   0.78       0.78
 
- abinit(1)                      0.008   2.9      0.018   5.2              1                   0.43       0.43
- abinit(2)                      0.031  11.5      0.046  13.5              1                   0.67       0.67
- indefo+macroin+invars2m        0.051  19.1      0.055  16.2              1                   0.92       0.92
- abinit(4)                      0.021   7.9      0.060  17.6              1                   0.35       0.35
- abinit(5)                      0.007   2.5      0.011   3.3              1                   0.61       0.61
- abinit(6)                      0.000   0.0     -1.000-295.8              1                  -0.00      -0.00
- timana(1)                      0.000   0.1      0.001   0.2              1                   0.33       0.33
- timing timab                   0.148  55.9      0.148  43.8             13                   1.00       1.00
- (other)                        0.000   0.1      1.001 296.0             -1                   0.00       0.00

- subtotal                       0.265 100.0      0.338 100.0                                  0.78       0.78
-
-Synchronisation (=leave_test) and MPI calls 
- communic.MPI                   0.000   0.0      0.000   0.0              1                   1.19       1.19
-
- subtotal                       0.000   0.0      0.000   0.0                                  0.00       0.00

 Additional information
- timana(1)                      0.000   0.1      0.001   0.2              1                   0.33       0.33
- total timab                    0.148  55.9      0.148  43.8         129776                   1.00       1.00
- status                         0.000   0.0      0.000   0.0              1                   1.09       1.09


 Detailed analysis of some time consuming routines 
                                  tcpu    ncalls  tcpu/ncalls    ndata tcpu/ncalls/ndata
                                 (sec)                (msec)              (microsec)
- fourwf%(pot)                   0.000         0
- fourwf%(den)                   0.000         0
- fourdp                         0.000         0
- nonlop(apply)                  0.000         0
- nonlop(forces)                 0.000         0
- nonlop(forstr)                 0.000         0
- projbd                         0.000         0
- xc:pot/=fourdp                 0.000         0

 abinit : before driver, prtvol=0, debugging mode => will skip acknowledgments
-
- Proc.   0 individual time (sec): cpu=          0.3  wall=          0.3

================================================================================

 Calculation completed.
.Delivered   2 WARNINGs and   0 COMMENTs to log file.
+Overall time at end (sec) : cpu=          0.3  wall=          0.3
