
.Version 8.3.2 of ABINIT 
.(MPI version, prepared for a x86_64_darwin16.3.0_gnu6.0 computer) 

.Copyright (C) 1998-2017 ABINIT group . 
 ABINIT comes with ABSOLUTELY NO WARRANTY.
 It is free software, and you are welcome to redistribute it
 under certain conditions (GNU General Public License,
 see ~abinit/COPYING or http://www.gnu.org/copyleft/gpl.txt).

 ABINIT is a project of the Universite Catholique de Louvain,
 Corning Inc. and other collaborators, see ~abinit/doc/developers/contributors.txt .
 Please read ~abinit/doc/users/acknowledgments.html for suggested
 acknowledgments of the ABINIT effort.
 For more information, see http://www.abinit.org .

.Starting date : Tue  4 Apr 2017.
- ( at 13h12 )
  
- input  file    -> t50.in
- output file    -> out
- root for input  files -> Tmp/i
- root for output files -> Tmp/o


 DATASET    1 : space group Fd -3 m (#227); Bravais cF (face-center cubic)
================================================================================
 Values of the parameters that define the memory need for DATASET  1.
     intxc =       0    ionmov =       0      iscf =       7    lmnmax =       1
     lnmax =       1     mgfft =      24  mpssoang =       2    mqgrid =    3001
     natom =       2  nloc_mem =       1    nspden =       1   nspinor =       1
    nsppol =       1      nsym =      48    n1xccc =    2501    ntypat =       1
    occopt =       1   xclevel =       1
-    mband =           4        mffmem =           1         mkmem =           8
       mpw =         609          nfft =       13824          nkpt =           8
================================================================================
P This job should need less than                       4.791 Mbytes of memory.
  Rough estimation (10% accuracy) of disk space for files :
_ WF disk file :      0.299 Mbytes ; DEN or POT disk file :      0.107 Mbytes.
================================================================================


 DATASET    2 : space group Fd -3 m (#227); Bravais cF (face-center cubic)
================================================================================
 Values of the parameters that define the memory need for DATASET  2 (RF).
     intxc =       0      iscf =       7    lmnmax =       1     lnmax =       1
     mgfft =      24  mpssoang =       2    mqgrid =    3001     natom =       2
  nloc_mem =       1    nspden =       1   nspinor =       1    nsppol =       1
      nsym =      48    n1xccc =    2501    ntypat =       1    occopt =       1
   xclevel =       1
-    mband =           4        mffmem =           1         mkmem =          64
-   mkqmem =          64        mk1mem =          64           mpw =         609
      nfft =       13824          nkpt =          64
================================================================================
P This job should need less than                      11.529 Mbytes of memory.
  Rough estimation (10% accuracy) of disk space for files :
_ WF disk file :      2.381 Mbytes ; DEN or POT disk file :      0.107 Mbytes.
================================================================================


 DATASET    3 : space group Fd -3 m (#227); Bravais cF (face-center cubic)
================================================================================
 Values of the parameters that define the memory need for DATASET  3 (RF).
     intxc =       0      iscf =       7    lmnmax =       1     lnmax =       1
     mgfft =      24  mpssoang =       2    mqgrid =    3001     natom =       2
  nloc_mem =       1    nspden =       1   nspinor =       1    nsppol =       1
      nsym =      48    n1xccc =    2501    ntypat =       1    occopt =       1
   xclevel =       1
-    mband =           4        mffmem =           1         mkmem =          64
-   mkqmem =          64        mk1mem =          64           mpw =         609
      nfft =       13824          nkpt =          64
================================================================================
P This job should need less than                      12.285 Mbytes of memory.
  Rough estimation (10% accuracy) of disk space for files :
_ WF disk file :      2.381 Mbytes ; DEN or POT disk file :      0.107 Mbytes.
================================================================================

--------------------------------------------------------------------------------
------------- Echo of variables that govern the present computation ------------
--------------------------------------------------------------------------------
-
- outvars: echo of selected default values                                      
-   iomode0 =  0 , fftalg0 =112 , wfoptalg0 =  0
-
- outvars: echo of global parameters not present in the input file              
-  max_nthreads =    0
-
 -outvars: echo values of preprocessed input variables --------
            acell      6.7034680500E+00  6.7034680500E+00  6.7034680500E+00 Bohr
              amu      1.20110000E+01
           diemac      6.00000000E+00
           dipdip           0
             ecut      3.00000000E+01 Hartree
           ecutsm      5.00000000E-01 Hartree
-          fftalg         112
           getwfk1          0
           getwfk2          1
           getwfk3          1
           istwfk1       1    0    1    0    0    0    1    0
           istwfk2       1    0    1    0    0    0    0    0    1    0
                         1    0    0    0    0    0    0    0    0    0
                         0    0    0    0    0    0    0    0    0    0
                         0    0    1    0    1    0    0    0    0    0
                         1    0    1    0    0    0    0    0    0    0
           istwfk3       1    0    1    0    0    0    0    0    1    0
                         1    0    0    0    0    0    0    0    0    0
                         0    0    0    0    0    0    0    0    0    0
                         0    0    1    0    1    0    0    0    0    0
                         1    0    1    0    0    0    0    0    0    0
                       outvar_i_n : Printing only first  50 k-points.
           jdtset        1    2    3
              kpt1     0.00000000E+00  0.00000000E+00  0.00000000E+00
                       2.50000000E-01  0.00000000E+00  0.00000000E+00
                       5.00000000E-01  0.00000000E+00  0.00000000E+00
                       2.50000000E-01  2.50000000E-01  0.00000000E+00
                       5.00000000E-01  2.50000000E-01  0.00000000E+00
                      -2.50000000E-01  2.50000000E-01  0.00000000E+00
                       5.00000000E-01  5.00000000E-01  0.00000000E+00
                      -2.50000000E-01  5.00000000E-01  2.50000000E-01
              kpt2     0.00000000E+00  0.00000000E+00  0.00000000E+00
                       2.50000000E-01  0.00000000E+00  0.00000000E+00
                       5.00000000E-01  0.00000000E+00  0.00000000E+00
                      -2.50000000E-01  0.00000000E+00  0.00000000E+00
                       0.00000000E+00  2.50000000E-01  0.00000000E+00
                       2.50000000E-01  2.50000000E-01  0.00000000E+00
                       5.00000000E-01  2.50000000E-01  0.00000000E+00
                      -2.50000000E-01  2.50000000E-01  0.00000000E+00
                       0.00000000E+00  5.00000000E-01  0.00000000E+00
                       2.50000000E-01  5.00000000E-01  0.00000000E+00
                       5.00000000E-01  5.00000000E-01  0.00000000E+00
                      -2.50000000E-01  5.00000000E-01  0.00000000E+00
                       0.00000000E+00 -2.50000000E-01  0.00000000E+00
                       2.50000000E-01 -2.50000000E-01  0.00000000E+00
                       5.00000000E-01 -2.50000000E-01  0.00000000E+00
                      -2.50000000E-01 -2.50000000E-01  0.00000000E+00
                       0.00000000E+00  0.00000000E+00  2.50000000E-01
                       2.50000000E-01  0.00000000E+00  2.50000000E-01
                       5.00000000E-01  0.00000000E+00  2.50000000E-01
                      -2.50000000E-01  0.00000000E+00  2.50000000E-01
                       0.00000000E+00  2.50000000E-01  2.50000000E-01
                       2.50000000E-01  2.50000000E-01  2.50000000E-01
                       5.00000000E-01  2.50000000E-01  2.50000000E-01
                      -2.50000000E-01  2.50000000E-01  2.50000000E-01
                       0.00000000E+00  5.00000000E-01  2.50000000E-01
                       2.50000000E-01  5.00000000E-01  2.50000000E-01
                       5.00000000E-01  5.00000000E-01  2.50000000E-01
                      -2.50000000E-01  5.00000000E-01  2.50000000E-01
                       0.00000000E+00 -2.50000000E-01  2.50000000E-01
                       2.50000000E-01 -2.50000000E-01  2.50000000E-01
                       5.00000000E-01 -2.50000000E-01  2.50000000E-01
                      -2.50000000E-01 -2.50000000E-01  2.50000000E-01
                       0.00000000E+00  0.00000000E+00  5.00000000E-01
                       2.50000000E-01  0.00000000E+00  5.00000000E-01
                       5.00000000E-01  0.00000000E+00  5.00000000E-01
                      -2.50000000E-01  0.00000000E+00  5.00000000E-01
                       0.00000000E+00  2.50000000E-01  5.00000000E-01
                       2.50000000E-01  2.50000000E-01  5.00000000E-01
                       5.00000000E-01  2.50000000E-01  5.00000000E-01
                      -2.50000000E-01  2.50000000E-01  5.00000000E-01
                       0.00000000E+00  5.00000000E-01  5.00000000E-01
                       2.50000000E-01  5.00000000E-01  5.00000000E-01
                       5.00000000E-01  5.00000000E-01  5.00000000E-01
                      -2.50000000E-01  5.00000000E-01  5.00000000E-01
                       0.00000000E+00 -2.50000000E-01  5.00000000E-01
                       2.50000000E-01 -2.50000000E-01  5.00000000E-01
                       5.00000000E-01 -2.50000000E-01  5.00000000E-01
                      -2.50000000E-01 -2.50000000E-01  5.00000000E-01
                       0.00000000E+00  0.00000000E+00 -2.50000000E-01
                       2.50000000E-01  0.00000000E+00 -2.50000000E-01
              kpt3     0.00000000E+00  0.00000000E+00  0.00000000E+00
                       2.50000000E-01  0.00000000E+00  0.00000000E+00
                       5.00000000E-01  0.00000000E+00  0.00000000E+00
                      -2.50000000E-01  0.00000000E+00  0.00000000E+00
                       0.00000000E+00  2.50000000E-01  0.00000000E+00
                       2.50000000E-01  2.50000000E-01  0.00000000E+00
                       5.00000000E-01  2.50000000E-01  0.00000000E+00
                      -2.50000000E-01  2.50000000E-01  0.00000000E+00
                       0.00000000E+00  5.00000000E-01  0.00000000E+00
                       2.50000000E-01  5.00000000E-01  0.00000000E+00
                       5.00000000E-01  5.00000000E-01  0.00000000E+00
                      -2.50000000E-01  5.00000000E-01  0.00000000E+00
                       0.00000000E+00 -2.50000000E-01  0.00000000E+00
                       2.50000000E-01 -2.50000000E-01  0.00000000E+00
                       5.00000000E-01 -2.50000000E-01  0.00000000E+00
                      -2.50000000E-01 -2.50000000E-01  0.00000000E+00
                       0.00000000E+00  0.00000000E+00  2.50000000E-01
                       2.50000000E-01  0.00000000E+00  2.50000000E-01
                       5.00000000E-01  0.00000000E+00  2.50000000E-01
                      -2.50000000E-01  0.00000000E+00  2.50000000E-01
                       0.00000000E+00  2.50000000E-01  2.50000000E-01
                       2.50000000E-01  2.50000000E-01  2.50000000E-01
                       5.00000000E-01  2.50000000E-01  2.50000000E-01
                      -2.50000000E-01  2.50000000E-01  2.50000000E-01
                       0.00000000E+00  5.00000000E-01  2.50000000E-01
                       2.50000000E-01  5.00000000E-01  2.50000000E-01
                       5.00000000E-01  5.00000000E-01  2.50000000E-01
                      -2.50000000E-01  5.00000000E-01  2.50000000E-01
                       0.00000000E+00 -2.50000000E-01  2.50000000E-01
                       2.50000000E-01 -2.50000000E-01  2.50000000E-01
                       5.00000000E-01 -2.50000000E-01  2.50000000E-01
                      -2.50000000E-01 -2.50000000E-01  2.50000000E-01
                       0.00000000E+00  0.00000000E+00  5.00000000E-01
                       2.50000000E-01  0.00000000E+00  5.00000000E-01
                       5.00000000E-01  0.00000000E+00  5.00000000E-01
                      -2.50000000E-01  0.00000000E+00  5.00000000E-01
                       0.00000000E+00  2.50000000E-01  5.00000000E-01
                       2.50000000E-01  2.50000000E-01  5.00000000E-01
                       5.00000000E-01  2.50000000E-01  5.00000000E-01
                      -2.50000000E-01  2.50000000E-01  5.00000000E-01
                       0.00000000E+00  5.00000000E-01  5.00000000E-01
                       2.50000000E-01  5.00000000E-01  5.00000000E-01
                       5.00000000E-01  5.00000000E-01  5.00000000E-01
                      -2.50000000E-01  5.00000000E-01  5.00000000E-01
                       0.00000000E+00 -2.50000000E-01  5.00000000E-01
                       2.50000000E-01 -2.50000000E-01  5.00000000E-01
                       5.00000000E-01 -2.50000000E-01  5.00000000E-01
                      -2.50000000E-01 -2.50000000E-01  5.00000000E-01
                       0.00000000E+00  0.00000000E+00 -2.50000000E-01
                       2.50000000E-01  0.00000000E+00 -2.50000000E-01
                       outvar_i_n : Printing only first  50 k-points.
           kptopt1          1
           kptopt2          3
           kptopt3          3
         kptrlatt        4    0    0      0    4    0      0    0    4
          kptrlen      1.89602709E+01
P           mkmem1          8
P           mkmem2         64
P           mkmem3         64
P          mkqmem1          8
P          mkqmem2         64
P          mkqmem3         64
P          mk1mem1          8
P          mk1mem2         64
P          mk1mem3         64
            natom           2
            nband1          4
            nband2          4
            nband3          4
           ndtset           3
            ngfft          24      24      24
             nkpt1          8
             nkpt2         64
             nkpt3         64
             nqpt1          0
             nqpt2          1
             nqpt3          1
             nsym          48
           ntypat           1
              occ1     2.000000  2.000000  2.000000  2.000000
              occ2     2.000000  2.000000  2.000000  2.000000
              occ3     2.000000  2.000000  2.000000  2.000000
        optdriver1          0
        optdriver2          1
        optdriver3          1
              qpt1     0.00000000E+00  0.00000000E+00  0.00000000E+00
              qpt2     0.00000000E+00  0.00000000E+00  0.00000000E+00
              qpt3     2.50000000E-01  0.00000000E+00  0.00000000E+00
          rfatpol           1       2
            rfdir           1       1       1
           rfphon1          0
           rfphon2          1
           rfphon3          1
            rprim      0.0000000000E+00  5.0000000000E-01  5.0000000000E-01
                       5.0000000000E-01  0.0000000000E+00  5.0000000000E-01
                       5.0000000000E-01  5.0000000000E-01  0.0000000000E+00
          spgroup         227
           symrel      1  0  0   0  1  0   0  0  1      -1  0  0   0 -1  0   0  0 -1
                       0 -1  1   0 -1  0   1 -1  0       0  1 -1   0  1  0  -1  1  0
                      -1  0  0  -1  0  1  -1  1  0       1  0  0   1  0 -1   1 -1  0
                       0  1 -1   1  0 -1   0  0 -1       0 -1  1  -1  0  1   0  0  1
                      -1  0  0  -1  1  0  -1  0  1       1  0  0   1 -1  0   1  0 -1
                       0 -1  1   1 -1  0   0 -1  0       0  1 -1  -1  1  0   0  1  0
                       1  0  0   0  0  1   0  1  0      -1  0  0   0  0 -1   0 -1  0
                       0  1 -1   0  0 -1   1  0 -1       0 -1  1   0  0  1  -1  0  1
                      -1  0  1  -1  1  0  -1  0  0       1  0 -1   1 -1  0   1  0  0
                       0 -1  0   1 -1  0   0 -1  1       0  1  0  -1  1  0   0  1 -1
                       1  0 -1   0  0 -1   0  1 -1      -1  0  1   0  0  1   0 -1  1
                       0  1  0   0  0  1   1  0  0       0 -1  0   0  0 -1  -1  0  0
                       1  0 -1   0  1 -1   0  0 -1      -1  0  1   0 -1  1   0  0  1
                       0 -1  0   0 -1  1   1 -1  0       0  1  0   0  1 -1  -1  1  0
                      -1  0  1  -1  0  0  -1  1  0       1  0 -1   1  0  0   1 -1  0
                       0  1  0   1  0  0   0  0  1       0 -1  0  -1  0  0   0  0 -1
                       0  0 -1   0  1 -1   1  0 -1       0  0  1   0 -1  1  -1  0  1
                       1 -1  0   0 -1  1   0 -1  0      -1  1  0   0  1 -1   0  1  0
                       0  0  1   1  0  0   0  1  0       0  0 -1  -1  0  0   0 -1  0
                      -1  1  0  -1  0  0  -1  0  1       1 -1  0   1  0  0   1  0 -1
                       0  0  1   0  1  0   1  0  0       0  0 -1   0 -1  0  -1  0  0
                       1 -1  0   0 -1  0   0 -1  1      -1  1  0   0  1  0   0  1 -1
                       0  0 -1   1  0 -1   0  1 -1       0  0  1  -1  0  1   0 -1  1
                      -1  1  0  -1  0  1  -1  0  0       1 -1  0   1  0 -1   1  0  0
           timopt          -1
            tnons      0.0000000  0.0000000  0.0000000     0.2500000  0.2500000  0.2500000
                       0.0000000  0.0000000  0.0000000     0.2500000  0.2500000  0.2500000
                       0.0000000  0.0000000  0.0000000     0.2500000  0.2500000  0.2500000
                       0.0000000  0.0000000  0.0000000     0.2500000  0.2500000  0.2500000
                       0.0000000  0.0000000  0.0000000     0.2500000  0.2500000  0.2500000
                       0.0000000  0.0000000  0.0000000     0.2500000  0.2500000  0.2500000
                       0.0000000  0.0000000  0.0000000     0.2500000  0.2500000  0.2500000
                       0.0000000  0.0000000  0.0000000     0.2500000  0.2500000  0.2500000
                       0.0000000  0.0000000  0.0000000     0.2500000  0.2500000  0.2500000
                       0.0000000  0.0000000  0.0000000     0.2500000  0.2500000  0.2500000
                       0.0000000  0.0000000  0.0000000     0.2500000  0.2500000  0.2500000
                       0.0000000  0.0000000  0.0000000     0.2500000  0.2500000  0.2500000
                       0.0000000  0.0000000  0.0000000     0.2500000  0.2500000  0.2500000
                       0.0000000  0.0000000  0.0000000     0.2500000  0.2500000  0.2500000
                       0.0000000  0.0000000  0.0000000     0.2500000  0.2500000  0.2500000
                       0.0000000  0.0000000  0.0000000     0.2500000  0.2500000  0.2500000
                       0.0000000  0.0000000  0.0000000     0.2500000  0.2500000  0.2500000
                       0.0000000  0.0000000  0.0000000     0.2500000  0.2500000  0.2500000
                       0.0000000  0.0000000  0.0000000     0.2500000  0.2500000  0.2500000
                       0.0000000  0.0000000  0.0000000     0.2500000  0.2500000  0.2500000
                       0.0000000  0.0000000  0.0000000     0.2500000  0.2500000  0.2500000
                       0.0000000  0.0000000  0.0000000     0.2500000  0.2500000  0.2500000
                       0.0000000  0.0000000  0.0000000     0.2500000  0.2500000  0.2500000
                       0.0000000  0.0000000  0.0000000     0.2500000  0.2500000  0.2500000
           tolvrs1     0.00000000E+00
           tolvrs2     1.00000000E-10
           tolvrs3     1.00000000E-10
           tolwfr1     1.00000000E-20
           tolwfr2     0.00000000E+00
           tolwfr3     0.00000000E+00
            typat      1  1
              wtk1       0.01563    0.12500    0.06250    0.09375    0.37500    0.18750
                         0.04688    0.09375
              wtk2       0.01563    0.01563    0.01563    0.01563    0.01563    0.01563
                         0.01563    0.01563    0.01563    0.01563    0.01563    0.01563
                         0.01563    0.01563    0.01563    0.01563    0.01563    0.01563
                         0.01563    0.01563    0.01563    0.01563    0.01563    0.01563
                         0.01563    0.01563    0.01563    0.01563    0.01563    0.01563
                         0.01563    0.01563    0.01563    0.01563    0.01563    0.01563
                         0.01563    0.01563    0.01563    0.01563    0.01563    0.01563
                         0.01563    0.01563    0.01563    0.01563    0.01563    0.01563
                         0.01563    0.01563
              wtk3       0.01563    0.01563    0.01563    0.01563    0.01563    0.01563
                         0.01563    0.01563    0.01563    0.01563    0.01563    0.01563
                         0.01563    0.01563    0.01563    0.01563    0.01563    0.01563
                         0.01563    0.01563    0.01563    0.01563    0.01563    0.01563
                         0.01563    0.01563    0.01563    0.01563    0.01563    0.01563
                         0.01563    0.01563    0.01563    0.01563    0.01563    0.01563
                         0.01563    0.01563    0.01563    0.01563    0.01563    0.01563
                         0.01563    0.01563    0.01563    0.01563    0.01563    0.01563
                         0.01563    0.01563
                       outvars : Printing only first  50 k-points.
           xangst      0.0000000000E+00  0.0000000000E+00  0.0000000000E+00
                       8.8683062764E-01  8.8683062764E-01  8.8683062764E-01
            xcart      0.0000000000E+00  0.0000000000E+00  0.0000000000E+00
                       1.6758670125E+00  1.6758670125E+00  1.6758670125E+00
             xred      0.0000000000E+00  0.0000000000E+00  0.0000000000E+00
                       2.5000000000E-01  2.5000000000E-01  2.5000000000E-01
            znucl        6.00000

================================================================================

 chkinp: Checking input parameters for consistency, jdtset=   1.

 chkinp: Checking input parameters for consistency, jdtset=   2.

 chkinp: Checking input parameters for consistency, jdtset=   3.

================================================================================
== DATASET  1 ==================================================================
-   nproc =    1

 Exchange-correlation functional for the present dataset will be:
  LDA: new Teter (4/93) with spin-polarized option - ixc=1
 Citation for XC functional:
  S. Goedecker, M. Teter, J. Huetter, PRB 54, 1703 (1996)

 Real(R)+Recip(G) space primitive vectors, cartesian coordinates (Bohr,Bohr^-1):
 R(1)=  0.0000000  3.3517340  3.3517340  G(1)= -0.1491765  0.1491765  0.1491765
 R(2)=  3.3517340  0.0000000  3.3517340  G(2)=  0.1491765 -0.1491765  0.1491765
 R(3)=  3.3517340  3.3517340  0.0000000  G(3)=  0.1491765  0.1491765 -0.1491765
 Unit cell volume ucvol=  7.5307571E+01 bohr^3
 Angles (23,13,12)=  6.00000000E+01  6.00000000E+01  6.00000000E+01 degrees

 getcut: wavevector=  0.0000  0.0000  0.0000  ngfft=  24  24  24
         ecut(hartree)=     30.000   => boxcut(ratio)=   2.05353

--- Pseudopotential description ------------------------------------------------
- pspini: atom type   1  psp file is 6c.pspnc
- pspatm: opening atomic psp file    6c.pspnc
-  Troullier-Martins psp for element  C         Thu Oct 27 17:29:33 EDT 1994
-  6.00000   4.00000    940714                znucl, zion, pspdat
    1    1    1    1      2001   0.00000      pspcod,pspxc,lmax,lloc,mmax,r2well
    0  10.372  24.987    1   1.4850707        l,e99.0,e99.9,nproj,rcpsp
   0.00000000   0.00000000   0.00000000   0.00000000     rms, ekb1, ekb2, epsatm
    1  15.431  21.987    0   1.4850707        l,e99.0,e99.9,nproj,rcpsp
   0.00000000   0.00000000   0.00000000   0.00000000     rms, ekb1, ekb2, epsatm
    0.83985002509544    0.99012430797080    0.51184907750884   rchrg,fchrg,qchrg
 pspatm: epsatm=    0.92590353
         --- l  ekb(1:nproj) -->
             0    4.921466
 pspatm: atomic psp has been read  and splines computed

   1.48144565E+01                                ecore*ucvol(ha*bohr**3)
--------------------------------------------------------------------------------

_setup2: Arith. and geom. avg. npw (full set) are     593.953     593.920

================================================================================

     iter   Etot(hartree)      deltaE(h)  residm     vres2
 ETOT  1  -12.057193248788    -1.206E+01 6.219E-02 4.258E+01
 ETOT  2  -12.071357653422    -1.416E-02 1.246E-06 2.532E-01
 ETOT  3  -12.071426121840    -6.847E-05 2.694E-07 3.718E-03
 ETOT  4  -12.071426624009    -5.022E-07 6.688E-09 1.957E-06
 ETOT  5  -12.071426624270    -2.606E-10 7.939E-12 6.201E-10
 ETOT  6  -12.071426624270    -2.416E-13 2.090E-14 1.340E-12
 ETOT  7  -12.071426624270     6.395E-14 4.513E-16 1.303E-15
 ETOT  8  -12.071426624270    -1.226E-13 4.849E-18 3.287E-18
 ETOT  9  -12.071426624270     4.388E-13 5.554E-20 6.026E-20
 ETOT 10  -12.071426624270    -1.634E-13 9.509E-21 5.915E-21

 At SCF step   10   max residual=  9.51E-21 < tolwfr=  1.00E-20 =>converged.

 Cartesian components of stress tensor (hartree/bohr^3)
  sigma(1 1)=  3.94900591E-05  sigma(3 2)=  0.00000000E+00
  sigma(2 2)=  3.94900591E-05  sigma(3 1)=  0.00000000E+00
  sigma(3 3)=  3.94900591E-05  sigma(2 1)=  0.00000000E+00

 Integrated electronic density in atomic spheres:
 ------------------------------------------------
 Atom  Sphere_radius  Integrated_density
    1        2.00000          4.70630054
    2        2.00000          4.70630054
================================================================================

 ----iterations are completed or convergence reached----

 Mean square residual over all n,k,spin=   4.6763E-21; max=  9.5092E-21
 reduced coordinates (array xred) for    2 atoms
       0.000000000000      0.000000000000      0.000000000000
       0.250000000000      0.250000000000      0.250000000000
 rms dE/dt=  0.0000E+00; max dE/dt=  0.0000E+00; dE/dt below (all hartree)
    1       0.000000000000      0.000000000000      0.000000000000
    2       0.000000000000      0.000000000000      0.000000000000

 cartesian coordinates (angstrom) at end:
    1      0.00000000000000     0.00000000000000     0.00000000000000
    2      0.88683062764281     0.88683062764281     0.88683062764281

 cartesian forces (hartree/bohr) at end:
    1     -0.00000000000000    -0.00000000000000    -0.00000000000000
    2     -0.00000000000000    -0.00000000000000    -0.00000000000000
 frms,max,avg= 0.0000000E+00 0.0000000E+00   0.000E+00  0.000E+00  0.000E+00 h/b

 cartesian forces (eV/Angstrom) at end:
    1     -0.00000000000000    -0.00000000000000    -0.00000000000000
    2     -0.00000000000000    -0.00000000000000    -0.00000000000000
 frms,max,avg= 0.0000000E+00 0.0000000E+00   0.000E+00  0.000E+00  0.000E+00 e/A
 length scales=  6.703468050000  6.703468050000  6.703468050000 bohr
              =  3.547322510571  3.547322510571  3.547322510571 angstroms
 prteigrs : about to open file Tmp/o_DS1_EIG
 Fermi (or HOMO) energy (hartree) =   0.46927   Average Vxc (hartree)=  -0.50608
 Eigenvalues (hartree) for nkpt=   8  k points:
 kpt#   1, nband=  4, wtk=  0.01563, kpt=  0.0000  0.0000  0.0000 (reduced coord)
  -0.32268    0.46927    0.46927    0.46927
 prteigrs : prtvol=0 or 1, do not print more k-points.


--------------------------------------------------------------------------------
 Components of total free energy (in Hartree) :

    Kinetic energy  =  8.44341179512313E+00
    Hartree energy  =  9.62619892103084E-01
    XC energy       = -4.35586565409293E+00
    Ewald energy    = -1.28573401205767E+01
    PspCore energy  =  1.96719350698876E-01
    Loc. psp. energy= -5.76059493568969E+00
    NL   psp  energy=  1.29962304816436E+00
    >>>>>>>>> Etotal= -1.20714266242699E+01

 Other information on the energy :
    Total energy(eV)= -3.28480223610832E+02 ; Band energy (Ha)=   1.1142517220E+00
--------------------------------------------------------------------------------

 Cartesian components of stress tensor (hartree/bohr^3)
  sigma(1 1)=  3.94900591E-05  sigma(3 2)=  0.00000000E+00
  sigma(2 2)=  3.94900591E-05  sigma(3 1)=  0.00000000E+00
  sigma(3 3)=  3.94900591E-05  sigma(2 1)=  0.00000000E+00

-Cartesian components of stress tensor (GPa)         [Pressure= -1.1618E+00 GPa]
- sigma(1 1)=  1.16183746E+00  sigma(3 2)=  0.00000000E+00
- sigma(2 2)=  1.16183746E+00  sigma(3 1)=  0.00000000E+00
- sigma(3 3)=  1.16183746E+00  sigma(2 1)=  0.00000000E+00

================================================================================
== DATASET  2 ==================================================================
-   nproc =    1

 mkfilename : getwfk/=0, take file _WFK from output of DATASET   1.

 Exchange-correlation functional for the present dataset will be:
  LDA: new Teter (4/93) with spin-polarized option - ixc=1
 Citation for XC functional:
  S. Goedecker, M. Teter, J. Huetter, PRB 54, 1703 (1996)

 Real(R)+Recip(G) space primitive vectors, cartesian coordinates (Bohr,Bohr^-1):
 R(1)=  0.0000000  3.3517340  3.3517340  G(1)= -0.1491765  0.1491765  0.1491765
 R(2)=  3.3517340  0.0000000  3.3517340  G(2)=  0.1491765 -0.1491765  0.1491765
 R(3)=  3.3517340  3.3517340  0.0000000  G(3)=  0.1491765  0.1491765 -0.1491765
 Unit cell volume ucvol=  7.5307571E+01 bohr^3
 Angles (23,13,12)=  6.00000000E+01  6.00000000E+01  6.00000000E+01 degrees
 setup1 : take into account q-point for computing boxcut.

 getcut: wavevector=  0.0000  0.0000  0.0000  ngfft=  24  24  24
         ecut(hartree)=     30.000   => boxcut(ratio)=   2.05353
--------------------------------------------------------------------------------

-inwffil : will read wavefunctions from disk file Tmp/o_DS1_WFK

 ==>  initialize data related to q vector <== 

 The list of irreducible perturbations for this q vector is:
    1)    idir= 1    ipert=   1

================================================================================

 The perturbation idir=   2  ipert=   1 is
 symmetric of a previously calculated perturbation.
 So, its SCF calculation is not needed.


 The perturbation idir=   3  ipert=   1 is
 symmetric of a previously calculated perturbation.
 So, its SCF calculation is not needed.


 The perturbation idir=   1  ipert=   2 is
 symmetric of a previously calculated perturbation.
 So, its SCF calculation is not needed.


 The perturbation idir=   2  ipert=   2 is
 symmetric of a previously calculated perturbation.
 So, its SCF calculation is not needed.


 The perturbation idir=   3  ipert=   2 is
 symmetric of a previously calculated perturbation.
 So, its SCF calculation is not needed.


--------------------------------------------------------------------------------
 Perturbation wavevector (in red.coord.)   0.000000  0.000000  0.000000
 Perturbation : displacement of atom   1   along direction   1
 Found     2 symmetries that leave the perturbation invariant.
 symkpt : the number of k-points, thanks to the symmetries,
 is reduced to    24 .

--------------------------------------------------------------------------------

-inwffil : will read wavefunctions from disk file Tmp/o_DS1_WFK
--------------------------------------------------------------------------------

 Initialisation of the first-order wave-functions :
  ireadwf=   0

     iter   2DEtotal(Ha)        deltaE(Ha) residm    vres2
-ETOT  1   18.269609806630     -2.320E+02 9.272E-01 1.808E+04
 ETOT  2   9.3602488661972     -8.909E+00 3.285E-02 2.864E+02
 ETOT  3   9.1661285394757     -1.941E-01 2.350E-03 2.285E+00
 ETOT  4   9.1652016487429     -9.269E-04 1.107E-04 6.666E-01
 ETOT  5   9.1645845820785     -6.171E-04 4.322E-06 2.873E-02
 ETOT  6   9.1645571097544     -2.747E-05 8.327E-08 7.510E-06
 ETOT  7   9.1645571047475     -5.007E-09 6.037E-11 8.580E-08
 ETOT  8   9.1645571046775     -7.000E-11 3.993E-13 7.864E-10
 ETOT  9   9.1645571046765     -1.023E-12 8.563E-15 2.695E-12

 At SCF step    9       vres2   =  2.70E-12 < tolvrs=  1.00E-10 =>converged.
================================================================================

 ----iterations are completed or convergence reached----

 Mean square residual over all n,k,spin=   6.5640E-16; max=  8.5627E-15

 Thirteen components of 2nd-order total energy (hartree) are
 1,2,3: 0th-order hamiltonian combined with 1st-order wavefunctions
     kin0=   3.48742868E+02 eigvalue=  -2.25279383E+01  local=  -2.01215076E+02
 4,5,6: 1st-order hamiltonian combined with 1st and 0th-order wfs
 loc psp =  -1.71266530E+02  Hartree=   2.56841310E+01     xc=  -8.62816895E+00
 note that "loc psp" includes a xc core correction that could be resolved
 7,8,9: eventually, occupation + non-local contributions
    edocc=   0.00000000E+00     enl0=   9.90765147E+01   enl1=  -3.10998129E+02
 1-9 gives the relaxation energy (to be shifted if some occ is /=2.0)
   erelax=  -2.41132330E+02
 10,11,12 Non-relaxation  contributions : frozen-wavefunctions and Ewald
 fr.local=   6.38412724E+01 fr.nonlo=   1.67394070E+02  Ewald=   1.99958120E+01
 13,14 Frozen wf xc core corrections (1) and (2)
 frxc 1  =  -1.07209134E+01  frxc 2 =   9.78664573E+00
 Resulting in :
 2DEtotal=    0.9164557105E+01 Ha. Also 2DEtotal=    0.249380281282E+03 eV
    (2DErelax=   -2.4113232964E+02 Ha. 2DEnonrelax=    2.5029688675E+02 Ha)
    (  non-var. 2DEtotal :    9.1645570746E+00 Ha)

================================================================================

 ---- first-order wavefunction calculations are completed ----


 ==> Compute Derivative Database <==
  
  2nd-order matrix (non-cartesian coordinates, masses not included,
   asr not included )
     j1       j2             matrix element
  dir pert dir pert     real part     imaginary part
  
   1    1   1    1         9.1645569867         0.0000000000
   1    1   2    1         4.5822784934         0.0000000000
   1    1   3    1         4.5822784934         0.0000000000
   1    1   1    2        -9.1645521393        -0.0000000000
   1    1   2    2        -4.5822760696         0.0000000000
   1    1   3    2        -4.5822760696        -0.0000000000
   1    1   2    4         0.0000000000         0.0000000000
   1    1   3    4         0.0000000000         0.0000000000
  
   2    1   1    1         4.5822784934         0.0000000000
   2    1   2    1         9.1645569867         0.0000000000
   2    1   3    1         4.5822784934         0.0000000000
   2    1   1    2        -4.5822760696         0.0000000000
   2    1   2    2        -9.1645521393         0.0000000000
   2    1   3    2        -4.5822760696        -0.0000000000
   2    1   1    4         0.0000000000         0.0000000000
   2    1   3    4         0.0000000000         0.0000000000
  
   3    1   1    1         4.5822784934         0.0000000000
   3    1   2    1         4.5822784934         0.0000000000
   3    1   3    1         9.1645569867         0.0000000000
   3    1   1    2        -4.5822760696        -0.0000000000
   3    1   2    2        -4.5822760696        -0.0000000000
   3    1   3    2        -9.1645521393         0.0000000000
   3    1   1    4         0.0000000000         0.0000000000
   3    1   2    4         0.0000000000         0.0000000000
  
   1    2   1    1        -9.1645521393         0.0000000000
   1    2   2    1        -4.5822760696        -0.0000000000
   1    2   3    1        -4.5822760696         0.0000000000
   1    2   1    2         9.1645569867         0.0000000000
   1    2   2    2         4.5822784934         0.0000000000
   1    2   3    2         4.5822784934         0.0000000000
   1    2   2    4         0.0000000000         0.0000000000
   1    2   3    4         0.0000000000         0.0000000000
  
   2    2   1    1        -4.5822760696        -0.0000000000
   2    2   2    1        -9.1645521393        -0.0000000000
   2    2   3    1        -4.5822760696         0.0000000000
   2    2   1    2         4.5822784934         0.0000000000
   2    2   2    2         9.1645569867         0.0000000000
   2    2   3    2         4.5822784934         0.0000000000
   2    2   1    4         0.0000000000         0.0000000000
   2    2   3    4         0.0000000000         0.0000000000
  
   3    2   1    1        -4.5822760696         0.0000000000
   3    2   2    1        -4.5822760696         0.0000000000
   3    2   3    1        -9.1645521393        -0.0000000000
   3    2   1    2         4.5822784934         0.0000000000
   3    2   2    2         4.5822784934         0.0000000000
   3    2   3    2         9.1645569867         0.0000000000
   3    2   1    4         0.0000000000         0.0000000000
   3    2   2    4         0.0000000000         0.0000000000
  
   1    4   2    1         0.0000000000         0.0000000000
   1    4   3    1         0.0000000000         0.0000000000
   1    4   2    2         0.0000000000         0.0000000000
   1    4   3    2         0.0000000000         0.0000000000
  
   2    4   1    1         0.0000000000         0.0000000000
   2    4   3    1         0.0000000000         0.0000000000
   2    4   1    2         0.0000000000         0.0000000000
   2    4   3    2         0.0000000000         0.0000000000
  
   3    4   1    1         0.0000000000         0.0000000000
   3    4   2    1         0.0000000000         0.0000000000
   3    4   1    2         0.0000000000         0.0000000000
   3    4   2    2         0.0000000000         0.0000000000
  
  
  Dynamical matrix, in cartesian coordinates,
   if specified in the inputs, asr has been imposed
     j1       j2             matrix element
  dir pert dir pert     real part    imaginary part
  
   1    1   1    1         0.4078893670         0.0000000000
   1    1   2    1        -0.0000000000         0.0000000000
   1    1   3    1         0.0000000000         0.0000000000
   1    1   1    2        -0.4078891513         0.0000000000
   1    1   2    2        -0.0000000000         0.0000000000
   1    1   3    2        -0.0000000000        -0.0000000000
  
   2    1   1    1        -0.0000000000         0.0000000000
   2    1   2    1         0.4078893670         0.0000000000
   2    1   3    1         0.0000000000         0.0000000000
   2    1   1    2        -0.0000000000         0.0000000000
   2    1   2    2        -0.4078891513        -0.0000000000
   2    1   3    2        -0.0000000000        -0.0000000000
  
   3    1   1    1         0.0000000000         0.0000000000
   3    1   2    1         0.0000000000         0.0000000000
   3    1   3    1         0.4078893670         0.0000000000
   3    1   1    2        -0.0000000000        -0.0000000000
   3    1   2    2        -0.0000000000        -0.0000000000
   3    1   3    2        -0.4078891513         0.0000000000
  
   1    2   1    1        -0.4078891513        -0.0000000000
   1    2   2    1        -0.0000000000        -0.0000000000
   1    2   3    1        -0.0000000000         0.0000000000
   1    2   1    2         0.4078893670         0.0000000000
   1    2   2    2        -0.0000000000         0.0000000000
   1    2   3    2        -0.0000000000         0.0000000000
  
   2    2   1    1        -0.0000000000        -0.0000000000
   2    2   2    1        -0.4078891513         0.0000000000
   2    2   3    1        -0.0000000000         0.0000000000
   2    2   1    2        -0.0000000000         0.0000000000
   2    2   2    2         0.4078893670         0.0000000000
   2    2   3    2         0.0000000000         0.0000000000
  
   3    2   1    1        -0.0000000000         0.0000000000
   3    2   2    1        -0.0000000000         0.0000000000
   3    2   3    1        -0.4078891513        -0.0000000000
   3    2   1    2         0.0000000000         0.0000000000
   3    2   2    2         0.0000000000         0.0000000000
   3    2   3    2         0.4078893670         0.0000000000

  Phonon wavevector (reduced coordinates) :  0.00000  0.00000  0.00000
 Phonon energies in Hartree :
   3.139081E-06  3.139081E-06  3.139082E-06  6.104028E-03  6.104028E-03
   6.104028E-03
 Phonon frequencies in cm-1    :
-  6.889486E-01  6.889487E-01  6.889489E-01  1.339679E+03  1.339679E+03
-  1.339679E+03

================================================================================
== DATASET  3 ==================================================================
-   nproc =    1

 mkfilename : getwfk/=0, take file _WFK from output of DATASET   1.

 Exchange-correlation functional for the present dataset will be:
  LDA: new Teter (4/93) with spin-polarized option - ixc=1
 Citation for XC functional:
  S. Goedecker, M. Teter, J. Huetter, PRB 54, 1703 (1996)

 Real(R)+Recip(G) space primitive vectors, cartesian coordinates (Bohr,Bohr^-1):
 R(1)=  0.0000000  3.3517340  3.3517340  G(1)= -0.1491765  0.1491765  0.1491765
 R(2)=  3.3517340  0.0000000  3.3517340  G(2)=  0.1491765 -0.1491765  0.1491765
 R(3)=  3.3517340  3.3517340  0.0000000  G(3)=  0.1491765  0.1491765 -0.1491765
 Unit cell volume ucvol=  7.5307571E+01 bohr^3
 Angles (23,13,12)=  6.00000000E+01  6.00000000E+01  6.00000000E+01 degrees
 setup1 : take into account q-point for computing boxcut.

 getcut: wavevector=  0.2500  0.0000  0.0000  ngfft=  24  24  24
         ecut(hartree)=     30.000   => boxcut(ratio)=   2.01098
--------------------------------------------------------------------------------

-inwffil : will read wavefunctions from disk file Tmp/o_DS1_WFK

 ==>  initialize data related to q vector <== 

 The list of irreducible perturbations for this q vector is:
    1)    idir= 1    ipert=   1
    2)    idir= 2    ipert=   1

================================================================================

 The perturbation idir=   3  ipert=   1 is
 symmetric of a previously calculated perturbation.
 So, its SCF calculation is not needed.


 The perturbation idir=   1  ipert=   2 is
 symmetric of a previously calculated perturbation.
 So, its SCF calculation is not needed.


 The perturbation idir=   2  ipert=   2 is
 symmetric of a previously calculated perturbation.
 So, its SCF calculation is not needed.


 The perturbation idir=   3  ipert=   2 is
 symmetric of a previously calculated perturbation.
 So, its SCF calculation is not needed.


--------------------------------------------------------------------------------
 Perturbation wavevector (in red.coord.)   0.250000  0.000000  0.000000
 Perturbation : displacement of atom   1   along direction   1
 Found     2 symmetries that leave the perturbation invariant.
 symkpt : the number of k-points, thanks to the symmetries,
 is reduced to    40 .

--------------------------------------------------------------------------------

-inwffil : will read wavefunctions from disk file Tmp/o_DS1_WFK
--------------------------------------------------------------------------------

-inwffil : will read wavefunctions from disk file Tmp/o_DS1_WFK
 Initialisation of the first-order wave-functions :
  ireadwf=   0

     iter   2DEtotal(Ha)        deltaE(Ha) residm    vres2
-ETOT  1   494.75471586318      2.058E+02 1.032E+01 7.978E+06
 ETOT  2   89.888504723362     -4.049E+02 3.376E+00 9.328E+05
 ETOT  3   16.634634536965     -7.325E+01 4.200E-01 3.033E+04
 ETOT  4   11.051499923939     -5.583E+00 1.606E-02 2.298E+03
 ETOT  5   10.797236525940     -2.543E-01 5.800E-04 7.403E+00
 ETOT  6   10.796333788579     -9.027E-04 1.230E-05 9.338E-02
 ETOT  7   10.796320069236     -1.372E-05 1.375E-07 1.046E-02
 ETOT  8   10.796315297421     -4.772E-06 1.699E-08 2.022E-03
 ETOT  9   10.796315134415     -1.630E-07 4.195E-10 1.100E-05
 ETOT 10   10.796315133553     -8.620E-10 5.595E-12 2.986E-07
 ETOT 11   10.796315133498     -5.571E-11 1.840E-13 2.912E-09
 ETOT 12   10.796315133500      2.672E-12 1.306E-15 3.249E-11

 At SCF step   12       vres2   =  3.25E-11 < tolvrs=  1.00E-10 =>converged.
================================================================================

 ----iterations are completed or convergence reached----

 Mean square residual over all n,k,spin=   1.6808E-16; max=  1.3064E-15

 Thirteen components of 2nd-order total energy (hartree) are
 1,2,3: 0th-order hamiltonian combined with 1st-order wavefunctions
     kin0=   3.48494151E+02 eigvalue=  -2.21660047E+01  local=  -1.97488402E+02
 4,5,6: 1st-order hamiltonian combined with 1st and 0th-order wfs
 loc psp =  -2.50326278E+02  Hartree=   6.21253645E+01     xc=  -9.03041448E+00
 note that "loc psp" includes a xc core correction that could be resolved
 7,8,9: eventually, occupation + non-local contributions
    edocc=   0.00000000E+00     enl0=   9.61806925E+01   enl1=  -3.05904497E+02
 1-9 gives the relaxation energy (to be shifted if some occ is /=2.0)
   erelax=  -2.78115387E+02
 10,11,12 Non-relaxation  contributions : frozen-wavefunctions and Ewald
 fr.local=   6.38412724E+01 fr.nonlo=   1.67394070E+02  Ewald=   5.86106276E+01
 13,14 Frozen wf xc core corrections (1) and (2)
 frxc 1  =  -1.07209134E+01  frxc 2 =   9.78664573E+00
 Resulting in :
 2DEtotal=    0.1079631513E+02 Ha. Also 2DEtotal=    0.293782675371E+03 eV
    (2DErelax=   -2.7811538726E+02 Ha. 2DEnonrelax=    2.8891170239E+02 Ha)
    (  non-var. 2DEtotal :    1.0796315185E+01 Ha)


--------------------------------------------------------------------------------
 Perturbation wavevector (in red.coord.)   0.250000  0.000000  0.000000
 Perturbation : displacement of atom   1   along direction   2
 The set of symmetries contains only one element for this perturbation.
 symkpt : not enough symmetry to change the number of k points.

--------------------------------------------------------------------------------

-inwffil : will read wavefunctions from disk file Tmp/o_DS1_WFK
--------------------------------------------------------------------------------

-inwffil : will read wavefunctions from disk file Tmp/o_DS1_WFK
 Initialisation of the first-order wave-functions :
  ireadwf=   0

     iter   2DEtotal(Ha)        deltaE(Ha) residm    vres2
-ETOT  1   20.303054312951     -2.314E+02 1.453E+00 2.264E+04
 ETOT  2   9.4856649562992     -1.082E+01 9.450E-02 4.682E+02
 ETOT  3   9.2014132482099     -2.843E-01 1.223E-03 1.296E+00
 ETOT  4   9.2007940398862     -6.192E-04 1.310E-05 6.257E-02
 ETOT  5   9.2007726248385     -2.142E-05 2.957E-07 2.108E-02
 ETOT  6   9.2007628452942     -9.780E-06 3.179E-08 1.010E-04
 ETOT  7   9.2007628160446     -2.925E-08 1.702E-10 3.682E-06
 ETOT  8   9.2007628156286     -4.161E-10 1.644E-12 1.547E-08
 ETOT  9   9.2007628156225     -6.054E-12 4.388E-14 6.241E-09
 ETOT 10   9.2007628156185     -4.007E-12 8.172E-15 3.065E-10
 ETOT 11   9.2007628156206      2.132E-12 1.446E-16 4.268E-12

 At SCF step   11       vres2   =  4.27E-12 < tolvrs=  1.00E-10 =>converged.
================================================================================

 ----iterations are completed or convergence reached----

 Mean square residual over all n,k,spin=   1.9396E-17; max=  1.4460E-16

 Thirteen components of 2nd-order total energy (hartree) are
 1,2,3: 0th-order hamiltonian combined with 1st-order wavefunctions
     kin0=   3.49770586E+02 eigvalue=  -2.31340828E+01  local=  -2.00228837E+02
 4,5,6: 1st-order hamiltonian combined with 1st and 0th-order wfs
 loc psp =  -1.77131336E+02  Hartree=   2.72301064E+01     xc=  -8.81740308E+00
 note that "loc psp" includes a xc core correction that could be resolved
 7,8,9: eventually, occupation + non-local contributions
    edocc=   0.00000000E+00     enl0=   9.76525621E+01   enl1=  -3.07814528E+02
 1-9 gives the relaxation energy (to be shifted if some occ is /=2.0)
   erelax=  -2.42472932E+02
 10,11,12 Non-relaxation  contributions : frozen-wavefunctions and Ewald
 fr.local=   6.38412724E+01 fr.nonlo=   1.67394070E+02  Ewald=   2.13726202E+01
 13,14 Frozen wf xc core corrections (1) and (2)
 frxc 1  =  -1.07209134E+01  frxc 2 =   9.78664573E+00
 Resulting in :
 2DEtotal=    0.9200762816E+01 Ha. Also 2DEtotal=    0.250365488781E+03 eV
    (2DErelax=   -2.4247293219E+02 Ha. 2DEnonrelax=    2.5167369501E+02 Ha)
    (  non-var. 2DEtotal :    9.2007628313E+00 Ha)

================================================================================

 ---- first-order wavefunction calculations are completed ----


 ==> Compute Derivative Database <==
  
  2nd-order matrix (non-cartesian coordinates, masses not included,
   asr not included )
     j1       j2             matrix element
  dir pert dir pert     real part     imaginary part
  
   1    1   1    1        10.7963153003        -0.0000000035
   1    1   2    1         4.6003814147         0.0000000000
   1    1   3    1         4.6003814147        -0.0000000000
   1    1   1    2        -6.3970502060         2.5184872306
   1    1   2    2        -3.6659861485         0.8030360017
   1    1   3    2        -3.6659861485         0.8030360017
  
   2    1   1    1         4.6003814147         0.0000000000
   2    1   2    1         9.2007628293        -0.0000000000
   2    1   3    1         4.6003814147         0.0000000000
   2    1   1    2        -3.6659861485         0.8030360017
   2    1   2    2        -7.3319722970         1.6060720035
   2    1   3    2        -3.6659861485         0.8030360017
  
   3    1   1    1         4.6003814147        -0.0000000000
   3    1   2    1         4.6003814147         0.0000000000
   3    1   3    1         9.2007628293         0.0000000000
   3    1   1    2        -3.6659861485         0.8030360017
   3    1   2    2        -3.6659861485         0.8030360017
   3    1   3    2        -7.3319722970         1.6060720035
  
   1    2   1    1        -6.3970502060        -2.5184872306
   1    2   2    1        -3.6659861485        -0.8030360017
   1    2   3    1        -3.6659861485        -0.8030360017
   1    2   1    2        10.7963153003         0.0000000035
   1    2   2    2         4.6003814147         0.0000000000
   1    2   3    2         4.6003814147        -0.0000000000
  
   2    2   1    1        -3.6659861485        -0.8030360017
   2    2   2    1        -7.3319722970        -1.6060720035
   2    2   3    1        -3.6659861485        -0.8030360017
   2    2   1    2         4.6003814147         0.0000000000
   2    2   2    2         9.2007628293        -0.0000000000
   2    2   3    2         4.6003814147         0.0000000000
  
   3    2   1    1        -3.6659861485        -0.8030360017
   3    2   2    1        -3.6659861485        -0.8030360017
   3    2   3    1        -7.3319722970        -1.6060720035
   3    2   1    2         4.6003814147        -0.0000000000
   3    2   2    2         4.6003814147         0.0000000000
   3    2   3    2         9.2007628293         0.0000000000
  
  
  Dynamical matrix, in cartesian coordinates,
   if specified in the inputs, asr has been imposed
     j1       j2             matrix element
  dir pert dir pert     real part    imaginary part
  
   1    1   1    1         0.4450076284        -0.0000000001
   1    1   2    1        -0.0355068384         0.0000000001
   1    1   3    1        -0.0355068384         0.0000000001
   1    1   1    2        -0.3055206218         0.0917864256
   1    1   2    2        -0.0208054127        -0.0203045532
   1    1   3    2        -0.0208054127        -0.0203045532
  
   2    1   1    1        -0.0355068384         0.0000000001
   2    1   2    1         0.4450076284        -0.0000000001
   2    1   3    1         0.0355068384        -0.0000000001
   2    1   1    2        -0.0208054127        -0.0203045532
   2    1   2    2        -0.3055206218         0.0917864256
   2    1   3    2         0.0208054127         0.0203045532
  
   3    1   1    1        -0.0355068384         0.0000000001
   3    1   2    1         0.0355068384        -0.0000000001
   3    1   3    1         0.4450076284        -0.0000000001
   3    1   1    2        -0.0208054127        -0.0203045532
   3    1   2    2         0.0208054127         0.0203045532
   3    1   3    2        -0.3055206218         0.0917864256
  
   1    2   1    1        -0.3055206218        -0.0917864256
   1    2   2    1        -0.0208054127         0.0203045532
   1    2   3    1        -0.0208054127         0.0203045532
   1    2   1    2         0.4450076284         0.0000000001
   1    2   2    2        -0.0355068384        -0.0000000001
   1    2   3    2        -0.0355068384        -0.0000000001
  
   2    2   1    1        -0.0208054127         0.0203045532
   2    2   2    1        -0.3055206218        -0.0917864256
   2    2   3    1         0.0208054127        -0.0203045532
   2    2   1    2        -0.0355068384        -0.0000000001
   2    2   2    2         0.4450076284         0.0000000001
   2    2   3    2         0.0355068384         0.0000000001
  
   3    2   1    1        -0.0208054127         0.0203045532
   3    2   2    1         0.0208054127        -0.0203045532
   3    2   3    1        -0.3055206218        -0.0917864256
   3    2   1    2        -0.0355068384        -0.0000000001
   3    2   2    2         0.0355068384         0.0000000001
   3    2   3    2         0.4450076284         0.0000000001

  Phonon wavevector (reduced coordinates) :  0.25000  0.00000  0.00000
 Phonon energies in Hartree :
   1.856196E-03  1.856196E-03  3.175370E-03  5.827598E-03  5.827598E-03
   6.087170E-03
 Phonon frequencies in cm-1    :
-  4.073879E+02  4.073879E+02  6.969132E+02  1.279010E+03  1.279010E+03
-  1.335979E+03

== END DATASET(S) ==============================================================
================================================================================
  
 -outvars: echo values of variables after computation  --------
            acell      6.7034680500E+00  6.7034680500E+00  6.7034680500E+00 Bohr
              amu      1.20110000E+01
           diemac      6.00000000E+00
           dipdip           0
             ecut      3.00000000E+01 Hartree
           ecutsm      5.00000000E-01 Hartree
           etotal1    -1.2071426624E+01
           etotal2     9.1645571047E+00
           etotal3     9.2007628156E+00
            fcart1    -0.0000000000E+00 -0.0000000000E+00 -0.0000000000E+00
                      -0.0000000000E+00 -0.0000000000E+00 -0.0000000000E+00
            fcart2     0.0000000000E+00  0.0000000000E+00  0.0000000000E+00
                       0.0000000000E+00  0.0000000000E+00  0.0000000000E+00
            fcart3     0.0000000000E+00  0.0000000000E+00  0.0000000000E+00
                       0.0000000000E+00  0.0000000000E+00  0.0000000000E+00
-          fftalg         112
           getwfk1          0
           getwfk2          1
           getwfk3          1
           istwfk1       1    0    1    0    0    0    1    0
           istwfk2       1    0    1    0    0    0    0    0    1    0
                         1    0    0    0    0    0    0    0    0    0
                         0    0    0    0    0    0    0    0    0    0
                         0    0    1    0    1    0    0    0    0    0
                         1    0    1    0    0    0    0    0    0    0
           istwfk3       1    0    1    0    0    0    0    0    1    0
                         1    0    0    0    0    0    0    0    0    0
                         0    0    0    0    0    0    0    0    0    0
                         0    0    1    0    1    0    0    0    0    0
                         1    0    1    0    0    0    0    0    0    0
                       outvar_i_n : Printing only first  50 k-points.
           jdtset        1    2    3
              kpt1     0.00000000E+00  0.00000000E+00  0.00000000E+00
                       2.50000000E-01  0.00000000E+00  0.00000000E+00
                       5.00000000E-01  0.00000000E+00  0.00000000E+00
                       2.50000000E-01  2.50000000E-01  0.00000000E+00
                       5.00000000E-01  2.50000000E-01  0.00000000E+00
                      -2.50000000E-01  2.50000000E-01  0.00000000E+00
                       5.00000000E-01  5.00000000E-01  0.00000000E+00
                      -2.50000000E-01  5.00000000E-01  2.50000000E-01
              kpt2     0.00000000E+00  0.00000000E+00  0.00000000E+00
                       2.50000000E-01  0.00000000E+00  0.00000000E+00
                       5.00000000E-01  0.00000000E+00  0.00000000E+00
                      -2.50000000E-01  0.00000000E+00  0.00000000E+00
                       0.00000000E+00  2.50000000E-01  0.00000000E+00
                       2.50000000E-01  2.50000000E-01  0.00000000E+00
                       5.00000000E-01  2.50000000E-01  0.00000000E+00
                      -2.50000000E-01  2.50000000E-01  0.00000000E+00
                       0.00000000E+00  5.00000000E-01  0.00000000E+00
                       2.50000000E-01  5.00000000E-01  0.00000000E+00
                       5.00000000E-01  5.00000000E-01  0.00000000E+00
                      -2.50000000E-01  5.00000000E-01  0.00000000E+00
                       0.00000000E+00 -2.50000000E-01  0.00000000E+00
                       2.50000000E-01 -2.50000000E-01  0.00000000E+00
                       5.00000000E-01 -2.50000000E-01  0.00000000E+00
                      -2.50000000E-01 -2.50000000E-01  0.00000000E+00
                       0.00000000E+00  0.00000000E+00  2.50000000E-01
                       2.50000000E-01  0.00000000E+00  2.50000000E-01
                       5.00000000E-01  0.00000000E+00  2.50000000E-01
                      -2.50000000E-01  0.00000000E+00  2.50000000E-01
                       0.00000000E+00  2.50000000E-01  2.50000000E-01
                       2.50000000E-01  2.50000000E-01  2.50000000E-01
                       5.00000000E-01  2.50000000E-01  2.50000000E-01
                      -2.50000000E-01  2.50000000E-01  2.50000000E-01
                       0.00000000E+00  5.00000000E-01  2.50000000E-01
                       2.50000000E-01  5.00000000E-01  2.50000000E-01
                       5.00000000E-01  5.00000000E-01  2.50000000E-01
                      -2.50000000E-01  5.00000000E-01  2.50000000E-01
                       0.00000000E+00 -2.50000000E-01  2.50000000E-01
                       2.50000000E-01 -2.50000000E-01  2.50000000E-01
                       5.00000000E-01 -2.50000000E-01  2.50000000E-01
                      -2.50000000E-01 -2.50000000E-01  2.50000000E-01
                       0.00000000E+00  0.00000000E+00  5.00000000E-01
                       2.50000000E-01  0.00000000E+00  5.00000000E-01
                       5.00000000E-01  0.00000000E+00  5.00000000E-01
                      -2.50000000E-01  0.00000000E+00  5.00000000E-01
                       0.00000000E+00  2.50000000E-01  5.00000000E-01
                       2.50000000E-01  2.50000000E-01  5.00000000E-01
                       5.00000000E-01  2.50000000E-01  5.00000000E-01
                      -2.50000000E-01  2.50000000E-01  5.00000000E-01
                       0.00000000E+00  5.00000000E-01  5.00000000E-01
                       2.50000000E-01  5.00000000E-01  5.00000000E-01
                       5.00000000E-01  5.00000000E-01  5.00000000E-01
                      -2.50000000E-01  5.00000000E-01  5.00000000E-01
                       0.00000000E+00 -2.50000000E-01  5.00000000E-01
                       2.50000000E-01 -2.50000000E-01  5.00000000E-01
                       5.00000000E-01 -2.50000000E-01  5.00000000E-01
                      -2.50000000E-01 -2.50000000E-01  5.00000000E-01
                       0.00000000E+00  0.00000000E+00 -2.50000000E-01
                       2.50000000E-01  0.00000000E+00 -2.50000000E-01
              kpt3     0.00000000E+00  0.00000000E+00  0.00000000E+00
                       2.50000000E-01  0.00000000E+00  0.00000000E+00
                       5.00000000E-01  0.00000000E+00  0.00000000E+00
                      -2.50000000E-01  0.00000000E+00  0.00000000E+00
                       0.00000000E+00  2.50000000E-01  0.00000000E+00
                       2.50000000E-01  2.50000000E-01  0.00000000E+00
                       5.00000000E-01  2.50000000E-01  0.00000000E+00
                      -2.50000000E-01  2.50000000E-01  0.00000000E+00
                       0.00000000E+00  5.00000000E-01  0.00000000E+00
                       2.50000000E-01  5.00000000E-01  0.00000000E+00
                       5.00000000E-01  5.00000000E-01  0.00000000E+00
                      -2.50000000E-01  5.00000000E-01  0.00000000E+00
                       0.00000000E+00 -2.50000000E-01  0.00000000E+00
                       2.50000000E-01 -2.50000000E-01  0.00000000E+00
                       5.00000000E-01 -2.50000000E-01  0.00000000E+00
                      -2.50000000E-01 -2.50000000E-01  0.00000000E+00
                       0.00000000E+00  0.00000000E+00  2.50000000E-01
                       2.50000000E-01  0.00000000E+00  2.50000000E-01
                       5.00000000E-01  0.00000000E+00  2.50000000E-01
                      -2.50000000E-01  0.00000000E+00  2.50000000E-01
                       0.00000000E+00  2.50000000E-01  2.50000000E-01
                       2.50000000E-01  2.50000000E-01  2.50000000E-01
                       5.00000000E-01  2.50000000E-01  2.50000000E-01
                      -2.50000000E-01  2.50000000E-01  2.50000000E-01
                       0.00000000E+00  5.00000000E-01  2.50000000E-01
                       2.50000000E-01  5.00000000E-01  2.50000000E-01
                       5.00000000E-01  5.00000000E-01  2.50000000E-01
                      -2.50000000E-01  5.00000000E-01  2.50000000E-01
                       0.00000000E+00 -2.50000000E-01  2.50000000E-01
                       2.50000000E-01 -2.50000000E-01  2.50000000E-01
                       5.00000000E-01 -2.50000000E-01  2.50000000E-01
                      -2.50000000E-01 -2.50000000E-01  2.50000000E-01
                       0.00000000E+00  0.00000000E+00  5.00000000E-01
                       2.50000000E-01  0.00000000E+00  5.00000000E-01
                       5.00000000E-01  0.00000000E+00  5.00000000E-01
                      -2.50000000E-01  0.00000000E+00  5.00000000E-01
                       0.00000000E+00  2.50000000E-01  5.00000000E-01
                       2.50000000E-01  2.50000000E-01  5.00000000E-01
                       5.00000000E-01  2.50000000E-01  5.00000000E-01
                      -2.50000000E-01  2.50000000E-01  5.00000000E-01
                       0.00000000E+00  5.00000000E-01  5.00000000E-01
                       2.50000000E-01  5.00000000E-01  5.00000000E-01
                       5.00000000E-01  5.00000000E-01  5.00000000E-01
                      -2.50000000E-01  5.00000000E-01  5.00000000E-01
                       0.00000000E+00 -2.50000000E-01  5.00000000E-01
                       2.50000000E-01 -2.50000000E-01  5.00000000E-01
                       5.00000000E-01 -2.50000000E-01  5.00000000E-01
                      -2.50000000E-01 -2.50000000E-01  5.00000000E-01
                       0.00000000E+00  0.00000000E+00 -2.50000000E-01
                       2.50000000E-01  0.00000000E+00 -2.50000000E-01
                       outvar_i_n : Printing only first  50 k-points.
           kptopt1          1
           kptopt2          3
           kptopt3          3
         kptrlatt        4    0    0      0    4    0      0    0    4
          kptrlen      1.89602709E+01
P           mkmem1          8
P           mkmem2         64
P           mkmem3         64
P          mkqmem1          8
P          mkqmem2         64
P          mkqmem3         64
P          mk1mem1          8
P          mk1mem2         64
P          mk1mem3         64
            natom           2
            nband1          4
            nband2          4
            nband3          4
           ndtset           3
            ngfft          24      24      24
             nkpt1          8
             nkpt2         64
             nkpt3         64
             nqpt1          0
             nqpt2          1
             nqpt3          1
             nsym          48
           ntypat           1
              occ1     2.000000  2.000000  2.000000  2.000000
              occ2     2.000000  2.000000  2.000000  2.000000
              occ3     2.000000  2.000000  2.000000  2.000000
        optdriver1          0
        optdriver2          1
        optdriver3          1
              qpt1     0.00000000E+00  0.00000000E+00  0.00000000E+00
              qpt2     0.00000000E+00  0.00000000E+00  0.00000000E+00
              qpt3     2.50000000E-01  0.00000000E+00  0.00000000E+00
          rfatpol           1       2
            rfdir           1       1       1
           rfphon1          0
           rfphon2          1
           rfphon3          1
            rprim      0.0000000000E+00  5.0000000000E-01  5.0000000000E-01
                       5.0000000000E-01  0.0000000000E+00  5.0000000000E-01
                       5.0000000000E-01  5.0000000000E-01  0.0000000000E+00
          spgroup         227
           strten1     3.9490059090E-05  3.9490059090E-05  3.9490059090E-05
                       0.0000000000E+00  0.0000000000E+00  0.0000000000E+00
           strten2     0.0000000000E+00  0.0000000000E+00  0.0000000000E+00
                       0.0000000000E+00  0.0000000000E+00  0.0000000000E+00
           strten3     0.0000000000E+00  0.0000000000E+00  0.0000000000E+00
                       0.0000000000E+00  0.0000000000E+00  0.0000000000E+00
           symrel      1  0  0   0  1  0   0  0  1      -1  0  0   0 -1  0   0  0 -1
                       0 -1  1   0 -1  0   1 -1  0       0  1 -1   0  1  0  -1  1  0
                      -1  0  0  -1  0  1  -1  1  0       1  0  0   1  0 -1   1 -1  0
                       0  1 -1   1  0 -1   0  0 -1       0 -1  1  -1  0  1   0  0  1
                      -1  0  0  -1  1  0  -1  0  1       1  0  0   1 -1  0   1  0 -1
                       0 -1  1   1 -1  0   0 -1  0       0  1 -1  -1  1  0   0  1  0
                       1  0  0   0  0  1   0  1  0      -1  0  0   0  0 -1   0 -1  0
                       0  1 -1   0  0 -1   1  0 -1       0 -1  1   0  0  1  -1  0  1
                      -1  0  1  -1  1  0  -1  0  0       1  0 -1   1 -1  0   1  0  0
                       0 -1  0   1 -1  0   0 -1  1       0  1  0  -1  1  0   0  1 -1
                       1  0 -1   0  0 -1   0  1 -1      -1  0  1   0  0  1   0 -1  1
                       0  1  0   0  0  1   1  0  0       0 -1  0   0  0 -1  -1  0  0
                       1  0 -1   0  1 -1   0  0 -1      -1  0  1   0 -1  1   0  0  1
                       0 -1  0   0 -1  1   1 -1  0       0  1  0   0  1 -1  -1  1  0
                      -1  0  1  -1  0  0  -1  1  0       1  0 -1   1  0  0   1 -1  0
                       0  1  0   1  0  0   0  0  1       0 -1  0  -1  0  0   0  0 -1
                       0  0 -1   0  1 -1   1  0 -1       0  0  1   0 -1  1  -1  0  1
                       1 -1  0   0 -1  1   0 -1  0      -1  1  0   0  1 -1   0  1  0
                       0  0  1   1  0  0   0  1  0       0  0 -1  -1  0  0   0 -1  0
                      -1  1  0  -1  0  0  -1  0  1       1 -1  0   1  0  0   1  0 -1
                       0  0  1   0  1  0   1  0  0       0  0 -1   0 -1  0  -1  0  0
                       1 -1  0   0 -1  0   0 -1  1      -1  1  0   0  1  0   0  1 -1
                       0  0 -1   1  0 -1   0  1 -1       0  0  1  -1  0  1   0 -1  1
                      -1  1  0  -1  0  1  -1  0  0       1 -1  0   1  0 -1   1  0  0
           timopt          -1
            tnons      0.0000000  0.0000000  0.0000000     0.2500000  0.2500000  0.2500000
                       0.0000000  0.0000000  0.0000000     0.2500000  0.2500000  0.2500000
                       0.0000000  0.0000000  0.0000000     0.2500000  0.2500000  0.2500000
                       0.0000000  0.0000000  0.0000000     0.2500000  0.2500000  0.2500000
                       0.0000000  0.0000000  0.0000000     0.2500000  0.2500000  0.2500000
                       0.0000000  0.0000000  0.0000000     0.2500000  0.2500000  0.2500000
                       0.0000000  0.0000000  0.0000000     0.2500000  0.2500000  0.2500000
                       0.0000000  0.0000000  0.0000000     0.2500000  0.2500000  0.2500000
                       0.0000000  0.0000000  0.0000000     0.2500000  0.2500000  0.2500000
                       0.0000000  0.0000000  0.0000000     0.2500000  0.2500000  0.2500000
                       0.0000000  0.0000000  0.0000000     0.2500000  0.2500000  0.2500000
                       0.0000000  0.0000000  0.0000000     0.2500000  0.2500000  0.2500000
                       0.0000000  0.0000000  0.0000000     0.2500000  0.2500000  0.2500000
                       0.0000000  0.0000000  0.0000000     0.2500000  0.2500000  0.2500000
                       0.0000000  0.0000000  0.0000000     0.2500000  0.2500000  0.2500000
                       0.0000000  0.0000000  0.0000000     0.2500000  0.2500000  0.2500000
                       0.0000000  0.0000000  0.0000000     0.2500000  0.2500000  0.2500000
                       0.0000000  0.0000000  0.0000000     0.2500000  0.2500000  0.2500000
                       0.0000000  0.0000000  0.0000000     0.2500000  0.2500000  0.2500000
                       0.0000000  0.0000000  0.0000000     0.2500000  0.2500000  0.2500000
                       0.0000000  0.0000000  0.0000000     0.2500000  0.2500000  0.2500000
                       0.0000000  0.0000000  0.0000000     0.2500000  0.2500000  0.2500000
                       0.0000000  0.0000000  0.0000000     0.2500000  0.2500000  0.2500000
                       0.0000000  0.0000000  0.0000000     0.2500000  0.2500000  0.2500000
           tolvrs1     0.00000000E+00
           tolvrs2     1.00000000E-10
           tolvrs3     1.00000000E-10
           tolwfr1     1.00000000E-20
           tolwfr2     0.00000000E+00
           tolwfr3     0.00000000E+00
            typat      1  1
              wtk1       0.01563    0.12500    0.06250    0.09375    0.37500    0.18750
                         0.04688    0.09375
              wtk2       0.01563    0.01563    0.01563    0.01563    0.01563    0.01563
                         0.01563    0.01563    0.01563    0.01563    0.01563    0.01563
                         0.01563    0.01563    0.01563    0.01563    0.01563    0.01563
                         0.01563    0.01563    0.01563    0.01563    0.01563    0.01563
                         0.01563    0.01563    0.01563    0.01563    0.01563    0.01563
                         0.01563    0.01563    0.01563    0.01563    0.01563    0.01563
                         0.01563    0.01563    0.01563    0.01563    0.01563    0.01563
                         0.01563    0.01563    0.01563    0.01563    0.01563    0.01563
                         0.01563    0.01563
              wtk3       0.01563    0.01563    0.01563    0.01563    0.01563    0.01563
                         0.01563    0.01563    0.01563    0.01563    0.01563    0.01563
                         0.01563    0.01563    0.01563    0.01563    0.01563    0.01563
                         0.01563    0.01563    0.01563    0.01563    0.01563    0.01563
                         0.01563    0.01563    0.01563    0.01563    0.01563    0.01563
                         0.01563    0.01563    0.01563    0.01563    0.01563    0.01563
                         0.01563    0.01563    0.01563    0.01563    0.01563    0.01563
                         0.01563    0.01563    0.01563    0.01563    0.01563    0.01563
                         0.01563    0.01563
                       outvars : Printing only first  50 k-points.
           xangst      0.0000000000E+00  0.0000000000E+00  0.0000000000E+00
                       8.8683062764E-01  8.8683062764E-01  8.8683062764E-01
            xcart      0.0000000000E+00  0.0000000000E+00  0.0000000000E+00
                       1.6758670125E+00  1.6758670125E+00  1.6758670125E+00
             xred      0.0000000000E+00  0.0000000000E+00  0.0000000000E+00
                       2.5000000000E-01  2.5000000000E-01  2.5000000000E-01
            znucl        6.00000

================================================================================

 Test the timer : 
  a combined call timab(*,1,tsec) + timab(*,2,tsec) is 
- CPU time =    1.3639E-06 sec,    Wall time =    1.4199E-06 sec

- Total cpu        time (s,m,h):         25.5        0.43      0.007
- Total wall clock time (s,m,h):         26.1        0.43      0.007
-
- For major independent code sections, cpu and wall times (sec),
-  as well as % of the time and number of calls for node 0-
-<BEGIN_TIMER mpi_nprocs = 1, omp_nthreads = 1, mpi_rank = 0>
- cpu_time =           25.5, wall_time =           26.1
-
- routine                        cpu     %       wall     %      number of calls  Gflops    Speedup Efficacity
-                                                                  (-1=no count)
- fourwf%(pot)                  14.542  56.9     14.634  56.1          34579      -1.00        0.99       0.99
- projbd                         3.409  13.3      3.052  11.7          57190      -1.00        1.12       1.12
- fourwf%(G->r)                  2.590  10.1      2.603  10.0          11200      -1.00        0.99       0.99
- dfpt_cgwf-O(npw)               0.998   3.9      0.944   3.6             -1      -1.00        1.06       1.06
- nonlop(apply)                  0.839   3.3      0.861   3.3          28979      -1.00        0.97       0.97
- dfpt_vtowfk(contrib)           0.566   2.2      0.563   2.2             -1      -1.00        1.01       1.01
- nonlop(forces)                 0.382   1.5      0.390   1.5           8672      -1.00        0.98       0.98
- getghc-other                   0.367   1.4      0.330   1.3             -1      -1.00        1.11       1.11
- pspini                         0.257   1.0      0.265   1.0              3      -1.00        0.97       0.97
- dfpt_vtorho-kpt loop           0.255   1.0      0.256   1.0             32      -1.00        0.99       0.99
- fourwf%(den)                   0.203   0.8      0.207   0.8            832      -1.00        0.98       0.98
- mkrho/=                        0.128   0.5      0.130   0.5              4      -1.00        0.98       0.98
- invars2                        0.120   0.5      0.123   0.5              3      -1.00        0.97       0.97
- timing timab                   0.118   0.5      0.123   0.5             12      -1.00        0.96       0.96
- newkpt(excl. rwwf   )          0.090   0.4      0.100   0.4             -1      -1.00        0.89       0.89
- fourdp                         0.074   0.3      0.075   0.3            226      -1.00        0.98       0.98
- dfpt_dyxc1                     0.045   0.2      0.046   0.2              2      -1.00        0.97       0.97
- abinit(2)                      0.032   0.1      0.051   0.2              1      -1.00        0.64       0.64
- symrhg(no FFT)                 0.029   0.1      0.029   0.1             33      -1.00        1.00       1.00
- inwffil(excl. calls)           0.024   0.1      0.045   0.2             11      -1.00        0.53       0.53
- kpgsph                         0.023   0.1      0.024   0.1           1495      -1.00        0.95       0.95
- xc:pot/=fourdp                 0.022   0.1      0.023   0.1            110      -1.00        0.96       0.96
- vtowfk(ssdiag)                 0.019   0.1      0.020   0.1             -1      -1.00        0.95       0.95
- setsym                         0.010   0.0      0.010   0.0              6      -1.00        1.00       1.00
- mkcore                         0.009   0.0      0.009   0.0              7      -1.00        1.00       1.00
- dfpt_vtowfk (1)                0.007   0.0      0.006   0.0           1400      -1.00        1.19       1.19
- dfpt_vtorho (1)                0.006   0.0      0.007   0.0             32      -1.00        0.90       0.90
- dfpt_vtowfk (3)                0.005   0.0      0.005   0.0           1400      -1.00        0.99       0.99
- forces                         0.003   0.0      0.003   0.0              1      -1.00        1.00       1.00
- stress                         0.003   0.0      0.003   0.0              1      -1.00        1.00       1.00
- vtowfk(contrib)                0.003   0.0      0.003   0.0             80      -1.00        1.06       1.06
- initwf(after rwwf)             0.002   0.0      0.002   0.0             56      -1.00        0.98       0.98
- dfpt_vtorho:MPI                0.001   0.0      0.001   0.0             32      -1.00        0.99       0.99
- nonlop(forstr)                 0.001   0.0      0.001   0.0             32      -1.00        0.99       0.99
- scfcv-scprqt                   0.001   0.0      0.001   0.0             10      -1.00        0.99       0.99
- ewald                          0.001   0.0      0.001   0.0              1      -1.00        0.61       0.61
- wfsinp(excl. calls)            0.001   0.0      0.001   0.0              7      -1.00        1.07       1.07
- ewald2 (+vdw_dftd)             0.001   0.0      0.001   0.0              1      -1.00        1.00       1.00
- dfpt_scfcv  (1)                0.001   0.0      0.001   0.0              3      -1.00        0.97       0.97
- vtowfk  (1)                    0.000   0.0      0.000   0.0             80      -1.00        1.11       1.11
- initwf(before rwwf)            0.000   0.0      0.001   0.0             56      -1.00        0.24       0.24
- status                         0.000   0.0      0.000   0.0              1      -1.00        1.13       1.13
- others (71)                    0.000   0.0      0.000   0.0             -1      -1.00        0.00       0.00
-<END_TIMER>
-
- subtotal                      25.185  98.6     24.949  95.7                                  1.01       1.01

- For major independent code sections, cpu and wall times (sec),
- as well as % of the total time and number of calls 

-<BEGIN_TIMER mpi_nprocs = 1, omp_nthreads = 1, mpi_rank = world>
- cpu_time =          25.5, wall_time =          26.1
-
- routine                         cpu     %       wall     %      number of calls Gflops    Speedup Efficacity
-                                                                  (-1=no count)
- fourwf%(pot)                  14.542  56.9     14.634  56.1          34579      -1.00        0.99       0.99
- projbd                         3.409  13.3      3.052  11.7          57190      -1.00        1.12       1.12
- fourwf%(G->r)                  2.590  10.1      2.603  10.0          11200      -1.00        0.99       0.99
- dfpt_cgwf-O(npw)               0.998   3.9      0.944   3.6             -1      -1.00        1.06       1.06
- nonlop(apply)                  0.839   3.3      0.861   3.3          28979      -1.00        0.97       0.97
- dfpt_vtowfk(contrib)           0.566   2.2      0.563   2.2             -1      -1.00        1.01       1.01
- nonlop(forces)                 0.382   1.5      0.390   1.5           8672      -1.00        0.98       0.98
- getghc-other                   0.367   1.4      0.330   1.3             -1      -1.00        1.11       1.11
- pspini                         0.257   1.0      0.265   1.0              3      -1.00        0.97       0.97
- dfpt_vtorho-kpt loop           0.255   1.0      0.256   1.0             32      -1.00        0.99       0.99
- fourwf%(den)                   0.203   0.8      0.207   0.8            832      -1.00        0.98       0.98
- mkrho/=                        0.128   0.5      0.130   0.5              4      -1.00        0.98       0.98
[...]

- subtotal                       1.397   5.5      1.442   5.5                                  0.97       0.97

 Partitioning of scfcv
- scfcv                          1.126   4.4      1.143   4.4              1                   0.98       0.98
 
- scfcv(iniloop, setvtr  )       0.006   0.0      0.009   0.0             10                   0.71       0.71
- scfcv(vtorho(f))               1.061   4.2      1.065   4.1             10                   1.00       1.00
- scfcv(rhotov)                  0.020   0.1      0.020   0.1             10                   0.99       0.99
- scfcv(mix pot)                 0.014   0.1      0.016   0.1              9                   0.90       0.90
- scfcv(afterscfloop)            0.009   0.0      0.011   0.0              1                   0.88       0.88
- scfcv(outscfcv)                0.012   0.0      0.015   0.1              1                   0.80       0.80

- subtotal                       1.126   4.4      1.143   4.4                                  0.98       0.98

 Partitioning of rhotov
- rhotov                         0.020   0.1      0.020   0.1             10                   0.99       0.99
 
- rhotov(rhohxc)                 0.018   0.1      0.018   0.1             10                   0.99       0.99

- subtotal                       0.020   0.1      0.020   0.1                                  0.99       0.99

 Partitioning of vtorho
- vtorho                         1.061   4.2      1.065   4.1             10                   1.00       1.00
 
- vtorho(bef. vtowfk)            0.008   0.0      0.010   0.0             80                   0.82       0.82
- vtowfk                         1.032   4.0      1.032   4.0             80                   1.00       1.00
- vtorho(mkrho 2)                0.018   0.1      0.020   0.1             20                   0.92       0.92

- subtotal                       1.061   4.2      1.065   4.1                                  1.00       1.00

 Partitioning of vtowfk
- vtowfk                         1.032   4.0      1.032   4.0             80                   1.00       1.00
 
- cgwf                           0.930   3.6      0.928   3.6             96                   1.00       1.00
- vtowfk(subdiago)               0.011   0.0      0.011   0.0             96                   1.06       1.06
- fourwf%vtowfk                  0.080   0.3      0.081   0.3            320                   0.98       0.98

- subtotal                       1.032   4.0      1.032   4.0                                  1.00       1.00

 Partitioning of cgwf
- cgwf                           0.930   3.6      0.928   3.6             96                   1.00       1.00
 
- getghc%cgwf                    0.718   2.8      0.726   2.8           1553                   0.99       0.99
- cgwf-O(npw)                    0.069   0.3      0.070   0.3             -1                   0.99       0.99
- projbd%cgwf                    0.144   0.6      0.132   0.5           2338                   1.09       1.09

- subtotal                       0.930   3.6      0.928   3.6                                  1.00       1.00

 Partitioning of respfn
- respfn                        23.764  93.1     24.135  92.6              2                   0.98       0.98
 
- respfn(inwffil)                0.044   0.2      0.056   0.2              2                   0.77       0.77
- respfn(frozen)                 0.181   0.7      0.189   0.7              2                   0.96       0.96
- respfn(dfpt_dyxc1+bef.df       0.047   0.2      0.049   0.2              2                   0.97       0.97
- respfn(after dfpt_loper)       0.008   0.0      0.012   0.0              2                   0.66       0.66
- dfpt_loper                    23.481  91.9     23.825  91.4              2                   0.99       0.99

- subtotal                      23.764  93.1     24.134  92.6                                  0.98       0.98

 Partitioning of dfpt_looppert
- dfpt_loper                    23.481  91.9     23.825  91.4              2                   0.99       0.99
 
- dfpt_loper(inwffil)            0.087   0.3      0.105   0.4              8                   0.83       0.83
- dfpt_scfcv                    23.333  91.4     23.036  88.4              3                   1.01       1.01
- dfpt_loper(outwf)              0.041   0.2      0.663   2.5              3                   0.06       0.06
- (other)                        0.011   0.0      0.013   0.0             -1                   0.89       0.89

- subtotal                      23.481  91.9     23.825  91.4                                  0.99       0.99

 Partitioning of dfpt_scfcv
- dfpt_scfcv                    23.333  91.4     23.036  88.4              3                   1.01       1.01
 
- dfpt_vtorho                   23.032  90.2     22.717  87.1             32                   1.01       1.01
- dfpt_rhotov                    0.026   0.1      0.027   0.1             35                   0.99       0.99
- dfpt_scfcv-scprqt              0.004   0.0      0.008   0.0             32                   0.49       0.49
- dfpt_newvtr                    0.059   0.2      0.060   0.2             29                   0.99       0.99
- dfpt_scfcv (6)                 0.012   0.0      0.019   0.1              6                   0.66       0.66
- dfpt_nselt/nstdy/nstpaw        0.196   0.8      0.204   0.8              3                   0.96       0.96

- subtotal                      23.331  91.4     23.034  88.3                                  1.01       1.01

 Partitioning of dfpt_vtorho
- dfpt_vtorho                   23.032  90.2     22.717  87.1             32                   1.01       1.01
 
- dfpt_vtorho (1)                0.006   0.0      0.007   0.0             32                   0.90       0.90
- dfpt_vtowfk                   22.733  89.0     22.415  86.0           1400                   1.01       1.01
- dfpt_vtorho-kpt loop           0.255   1.0      0.256   1.0             32                   0.99       0.99
- dfpt_vtorho (4)                0.037   0.1      0.037   0.1             32                   1.00       1.00

- subtotal                      23.032  90.2     22.716  87.1                                  1.01       1.01

 Partitioning of dfpt_vtowfk
- dfpt_vtowfk                   22.733  89.0     22.415  86.0           1400                   1.01       1.01
 
- dfpt_vtowfk (1)                0.007   0.0      0.006   0.0           1400                   1.19       1.19
- dfpt_cgwf                     19.554  76.6     19.227  73.7           5600                   1.02       1.02
- fourwf%dfpt_accrho%dfpt_       2.590  10.1      2.603  10.0          11200                   0.99       0.99
- corrmetalwf1%dfpt_vtowfk       0.010   0.0      0.010   0.0           5600                   1.00       1.00
- dfpt_vtowfk(contrib)           0.566   2.2      0.563   2.2             -1                   1.01       1.01
- dfpt_vtowfk (3)                0.005   0.0      0.005   0.0           1400                   0.99       0.99

- subtotal                      22.733  89.0     22.415  86.0                                  1.01       1.01

 Partitioning of dfpt_cgwf
- dfpt_cgwf                     19.554  76.6     19.227  73.7           5600                   1.02       1.02
 
- dfpt_cgwf-O(npw)               0.998   3.9      0.944   3.6             -1                   1.06       1.06
- getghc%dfpt_cgwf              12.650  49.5     12.700  48.7          27426                   1.00       1.00
- projbd%dfpt_cgwf               3.265  12.8      2.920  11.2          54852                   1.12       1.12
- nonlop%dfpt_cgwf !2            0.261   1.0      0.265   1.0           5600                   0.98       0.98
- fourwf%dfpt_cgwf               2.380   9.3      2.398   9.2           5600                   0.99       0.99

- subtotal                      19.554  76.6     19.227  73.7                                  1.02       1.02

 Partitioning of getghc
- getghc                        13.367  52.3     13.426  51.5          28979                   1.00       1.00
 
- fourwf%getghc                 12.162  47.6     12.236  46.9          28979                   0.99       0.99
- nonlop%getghc                  0.839   3.3      0.861   3.3          28979                   0.97       0.97
- getghc-other                   0.367   1.4      0.330   1.3             -1                   1.11       1.11

- subtotal                      13.367  52.3     13.426  51.5                                  1.00       1.00

 Partitioning of fourwf (upwards partitioning)
- fourwf                        17.335  67.9     17.444  66.9          46611                   0.99       0.99
 
- fourwf%getghc                 12.162  47.6     12.236  46.9          28979                   0.99       0.99
- fourwf%vtowfk                  0.080   0.3      0.081   0.3            320                   0.98       0.98
- fourwf%dfpt_cgwf               2.380   9.3      2.398   9.2           5600                   0.99       0.99
- fourwf%dfpt_accrho%dfpt_       2.590  10.1      2.603  10.0          11200                   0.99       0.99
- fourwf%mkrho2                  0.123   0.5      0.125   0.5            512                   0.98       0.98

- subtotal                      17.335  67.9     17.444  66.9                                  0.99       0.99

 Partitioning of mkrho (upwards partitioning)
- mkrho                          0.130   0.5      0.133   0.5              2                   0.98       0.98
 
- mkrho%respfn                   0.130   0.5      0.133   0.5              2                   0.98       0.98

- subtotal                       0.130   0.5      0.133   0.5                                  0.98       0.98

 Partitioning of inwffil
- inwffil                        0.133   0.5      0.166   0.6             11                   0.80       0.80
 
- inwffil(read header)           0.024   0.1      0.044   0.2             11                   0.53       0.53
- inwffil(call wfsinp)           0.017   0.1      0.018   0.1              7                   0.95       0.95
- inwffil(call newkpt)           0.092   0.4      0.103   0.4             11                   0.89       0.89

- subtotal                       0.133   0.5      0.165   0.6                                  0.80       0.80

 Partitioning of wfsinp
- wfsinp                         0.017   0.1      0.018   0.1              7                   0.95       0.95
 
- wfsinp(call  initwf)           0.009   0.0      0.010   0.0             56                   0.93       0.93
- wfsinp(wfconv section)         0.007   0.0      0.007   0.0             56                   0.95       0.95

- subtotal                       0.017   0.1      0.018   0.1                                  0.95       0.95

 Partitioning of initwf
- initwf                         0.009   0.0      0.010   0.0             56                   0.93       0.93
 
- rwwf%initwf(RF)                0.007   0.0      0.007   0.0             56                   0.97       0.97

- subtotal                       0.009   0.0      0.009   0.0                                  0.92       0.92

 Partitioning of newkpt
- newkpt                         0.092   0.4      0.102   0.4             11                   0.90       0.90
 
- newkpt(before rwwf)            0.009   0.0      0.016   0.1            496                   0.54       0.54
- newkpt(call wfconv)            0.080   0.3      0.083   0.3            496                   0.96       0.96

- subtotal                       0.090   0.4      0.100   0.4                                  0.89       0.89

 Partitioning of newvtr
- newvtr                         0.014   0.1      0.015   0.1              9                   0.93       0.93
 
- newvtr(call prcref_PMA)        0.007   0.0      0.008   0.0              9                   0.88       0.88
- newvtr(aft. prcref_PMA)        0.006   0.0      0.006   0.0              9                   0.98       0.98

- subtotal                       0.014   0.1      0.015   0.1                                  0.93       0.93

 Partitioning of  fourdp (upwards partitioning)
- fourdp                         0.074   0.3      0.075   0.3            226                   0.98       0.98
 
- fourdp%(other)                 0.074   0.3      0.075   0.3            226                   0.98       0.98

- subtotal                       0.074   0.3      0.075   0.3                                  0.98       0.98

 Partitioning of afterscfloop
- afterscfloop                   0.009   0.0      0.010   0.0              1                   0.92       0.92
 
- afterscfloop(forstr)           0.009   0.0      0.010   0.0              1                   0.92       0.92

- subtotal                       0.009   0.0      0.010   0.0                                  0.92       0.92

 Partitioning of forstr
- forstr                         0.009   0.0      0.010   0.0              1                   0.92       0.92
 

- subtotal                       0.009   0.0      0.010   0.0                                  0.92       0.92

 Partitioning of forstrnps
- forstrnps                      0.002   0.0      0.003   0.0              1                   0.87       0.87
 

- subtotal                       0.002   0.0      0.003   0.0                                  0.87       0.87

 Partitioning of outscfcv
- outscfcv                       0.012   0.0      0.015   0.1              1                   0.80       0.80
 
- outscfcv(prtelf)               0.009   0.0      0.010   0.0              1                   0.89       0.89

- subtotal                       0.012   0.0      0.014   0.1                                  0.85       0.85
-
-Synchronisation (=leave_test) and MPI calls 
- communic.MPI                   0.025   0.1      0.018   0.1          24093                   1.37       1.37
-
- forstrnps:synchr               0.000   0.0      0.000   0.0              2                   1.62       1.62
- wfsinp:synchro                 0.000   0.0      0.000   0.0              7                   1.07       1.07
- mkrho :MPIrhor                 0.000   0.0      0.000   0.0              2                   0.74       0.74
- subtotal                       0.000   0.0      0.000   0.0                                  1.07       1.07

 Additional information
- timana(1)                      0.000   0.0      0.001   0.0              1                   0.16       0.16
- total timab                    0.419   1.6      0.436   1.7         306937                   0.96       0.96
- fourwf                        17.335  67.9     17.444  66.9          46611                   0.99       0.99
- mklocl(2)                      0.001   0.0      0.001   0.0              1                   1.00       1.00
- status                         0.000   0.0      0.000   0.0              1                   1.13       1.13
- nonlop(forstr)                 0.001   0.0      0.001   0.0             32                   0.99       0.99
- nonlop(dyfrnl)                 0.019   0.1      0.020   0.1            512                   0.96       0.96
- nonlop(total)                  1.241   4.9      1.273   4.9          38195                   0.98       0.98
- fourwf%(G->r)                  2.590  10.1      2.603  10.0          11200                   0.99       0.99

 timana : in multi dataset mode, the more detailed analysis is not done.

================================================================================

 Suggested references for the acknowledgment of ABINIT usage.

 The users of ABINIT have little formal obligations with respect to the ABINIT group
 (those specified in the GNU General Public License, http://www.gnu.org/copyleft/gpl.txt).
 However, it is common practice in the scientific literature,
 to acknowledge the efforts of people that have made the research possible.
 In this spirit, please find below suggested citations of work written by ABINIT developers,
 corresponding to implementations inside of ABINIT that you have used in the present run.
 Note also that it will be of great value to readers of publications presenting these results,
 to read papers enabling them to understand the theoretical formalism and details
 of the ABINIT implementation.
 For information on why they are suggested, see also http://www.abinit.org/about/?text=acknowledgments.
-
- [1] Recent developments in the ABINIT software package.
- Computer Phys. Comm. 205, 106 (2016).
- X.Gonze, F.Jollet, F.Abreu Araujo, D.Adams, B.Amadon, T.Applencourt,
- C.Audouze, J.-M.Beuken, J.Bieder, A.Bokhanchuk, E.Bousquet, F.Bruneval
- D.Caliste, M.Cote, F.Dahm, F.Da Pieve, M.Delaveau, M.Di Gennaro,
- B.Dorado, C.Espejo, G.Geneste, L.Genovese, A.Gerossier, M.Giantomassi,
- Y.Gillet, D.R.Hamann, L.He, G.Jomard, J.Laflamme Janssen, S.Le Roux,
- A.Levitt, A.Lherbier, F.Liu, I.Lukacevic, A.Martin, C.Martins,
- M.J.T.Oliveira, S.Ponce, Y.Pouillon, T.Rangel, G.-M.Rignanese,
- A.H.Romero, B.Rousseau, O.Rubel, A.A.Shukri, M.Stankovski, M.Torrent,
- M.J.Van Setten, B.Van Troeye, M.J.Verstraete, D.Waroquier, J.Wiktor,
- B.Xue, A.Zhou, J.W.Zwanziger.
- Comment : the fourth generic paper describing the ABINIT project.
- Note that a version of this paper, that is not formatted for Computer Phys. Comm. 
- is available at http://www.abinit.org/about/ABINIT16.pdf .
- The licence allows the authors to put it on the Web.
-
- [2] First-principles responses of solids to atomic displacements and homogeneous electric fields:,
- implementation of a conjugate-gradient algorithm. X. Gonze, Phys. Rev. B55, 10337 (1997).
- Comment : Non-vanishing rfphon and/or rfelfd, in the norm-conserving case.
-
- [3] Dynamical matrices, Born effective charges, dielectric permittivity tensors, and ,
- interatomic force constants from density-functional perturbation theory,
- X. Gonze and C. Lee, Phys. Rev. B55, 10355 (1997).
- Comment : Non-vanishing rfphon and/or rfelfd, in the norm-conserving case.
-
- [4] ABINIT : First-principles approach of materials and nanosystem properties.
- Computer Phys. Comm. 180, 2582-2615 (2009).
- X. Gonze, B. Amadon, P.-M. Anglade, J.-M. Beuken, F. Bottin, P. Boulanger, F. Bruneval,
- D. Caliste, R. Caracas, M. Cote, T. Deutsch, L. Genovese, Ph. Ghosez, M. Giantomassi
- S. Goedecker, D.R. Hamann, P. Hermet, F. Jollet, G. Jomard, S. Leroux, M. Mancini, S. Mazevet,
- M.J.T. Oliveira, G. Onida, Y. Pouillon, T. Rangel, G.-M. Rignanese, D. Sangalli, R. Shaltaf,
- M. Torrent, M.J. Verstraete, G. Zerah, J.W. Zwanziger
- Comment : the third generic paper describing the ABINIT project.
- Note that a version of this paper, that is not formatted for Computer Phys. Comm. 
- is available at http://www.abinit.org/about/ABINIT_CPC_v10.pdf .
- The licence allows the authors to put it on the Web.
-
- [5] A brief introduction to the ABINIT software package.
- Z. Kristallogr. 220, 558-562 (2005).
- X. Gonze, G.-M. Rignanese, M. Verstraete, J.-M. Beuken, Y. Pouillon, R. Caracas, F. Jollet,
- M. Torrent, G. Zerah, M. Mikami, Ph. Ghosez, M. Veithen, J.-Y. Raty, V. Olevano, F. Bruneval,
- L. Reining, R. Godby, G. Onida, D.R. Hamann, and D.C. Allan.
- Comment : the second generic paper describing the ABINIT project. Note that this paper
- should be cited especially if you are using the GW part of ABINIT, as several authors
- of this part are not in the list of authors of the first or third paper.
- The .pdf of the latter paper is available at http://www.abinit.org/about/zfk_0505-06_558-562.pdf.
- Note that it should not redistributed (Copyright by Oldenburg Wissenshaftverlag,
- the licence allows the authors to put it on the Web).
-
- Proc.   0 individual time (sec): cpu=         25.5  wall=         26.1

================================================================================

 Calculation completed.
.Delivered  28 WARNINGs and   0 COMMENTs to log file.
+Overall time at end (sec) : cpu=         25.5  wall=         26.1
