
.Version 8.0.6 of ABINIT 
.(MPI version, prepared for a x86_64_darwin15.4.0_gnu5.3 computer) 

.Copyright (C) 1998-2016 ABINIT group . 
 ABINIT comes with ABSOLUTELY NO WARRANTY.
 It is free software, and you are welcome to redistribute it
 under certain conditions (GNU General Public License,
 see ~abinit/COPYING or http://www.gnu.org/copyleft/gpl.txt).

 ABINIT is a project of the Universite Catholique de Louvain,
 Corning Inc. and other collaborators, see ~abinit/doc/developers/contributors.txt .
 Please read ~abinit/doc/users/acknowledgments.html for suggested
 acknowledgments of the ABINIT effort.
 For more information, see http://www.abinit.org .

.Starting date : Mon  1 Aug 2016.
- ( at 21h36 )
  
- input  file    -> run.abi
- output file    -> run.abo
- root for input  files -> in
- root for output files -> out


 DATASET    1 : space group Fd -3 m (#227); Bravais cF (face-center cubic)
================================================================================
 Values of the parameters that define the memory need for DATASET  1.
     intxc =       0    ionmov =       0      iscf =       7    lmnmax =       2
     lnmax =       2     mgfft =      18  mpssoang =       3    mqgrid =    3001
     natom =       2  nloc_mem =       1    nspden =       1   nspinor =       1
    nsppol =       1      nsym =      48    n1xccc =    2501    ntypat =       1
    occopt =       1   xclevel =       1
-    mband =           4        mffmem =           1         mkmem =           2
       mpw =         193          nfft =        5832          nkpt =           2
================================================================================
P This job should need less than                       2.252 Mbytes of memory.
  Rough estimation (10% accuracy) of disk space for files :
_ WF disk file :      0.026 Mbytes ; DEN or POT disk file :      0.046 Mbytes.
================================================================================


 DATASET    2 : space group Fd -3 m (#227); Bravais cF (face-center cubic)
================================================================================
 Values of the parameters that define the memory need for DATASET  2.
     intxc =       0    ionmov =       0      iscf =      -2    lmnmax =       2
     lnmax =       2     mgfft =      18  mpssoang =       3    mqgrid =    3001
     natom =       2  nloc_mem =       1    nspden =       1   nspinor =       1
    nsppol =       1      nsym =      48    n1xccc =    2501    ntypat =       1
    occopt =       1   xclevel =       1
-    mband =          35        mffmem =           1         mkmem =           6
       mpw =         202          nfft =        5832          nkpt =           6
================================================================================
P This job should need less than                       2.239 Mbytes of memory.
  Rough estimation (10% accuracy) of disk space for files :
_ WF disk file :      0.649 Mbytes ; DEN or POT disk file :      0.046 Mbytes.
================================================================================


 DATASET    3 : space group Fd -3 m (#227); Bravais cF (face-center cubic)
================================================================================
 Values of the parameters that define the memory need for DATASET  3.
     intxc =       0    ionmov =       0      iscf =       7    lmnmax =       2
     lnmax =       2     mgfft =      18  mpssoang =       3    mqgrid =    3001
     natom =       2  nloc_mem =       1    nspden =       1   nspinor =       1
    nsppol =       1      nsym =      48    n1xccc =    2501    ntypat =       1
    occopt =       1   xclevel =       1
-    mband =          25        mffmem =           1         mkmem =           6
       mpw =         200          nfft =        5832          nkpt =           6
================================================================================
P This job should need less than                       2.736 Mbytes of memory.
  Rough estimation (10% accuracy) of disk space for files :
_ WF disk file :      0.460 Mbytes ; DEN or POT disk file :      0.046 Mbytes.
================================================================================


 DATASET    4 : space group Fd -3 m (#227); Bravais cF (face-center cubic)
================================================================================
 Values of the parameters that define the memory need for DATASET  4.
     intxc =       0    ionmov =       0      iscf =       7    lmnmax =       2
     lnmax =       2     mgfft =      18  mpssoang =       3    mqgrid =    3001
     natom =       2  nloc_mem =       1    nspden =       1   nspinor =       1
    nsppol =       1      nsym =      48    n1xccc =    2501    ntypat =       1
    occopt =       1   xclevel =       1
-    mband =          10        mffmem =           1         mkmem =           6
       mpw =         200          nfft =        5832          nkpt =           6
================================================================================
P This job should need less than                       2.434 Mbytes of memory.
  Rough estimation (10% accuracy) of disk space for files :
_ WF disk file :      0.185 Mbytes ; DEN or POT disk file :      0.046 Mbytes.
================================================================================


 DATASET    5 : space group Fd -3 m (#227); Bravais cF (face-center cubic)
================================================================================
 Values of the parameters that define the memory need for DATASET  5.
     intxc =       0    ionmov =       0      iscf =       7    lmnmax =       2
     lnmax =       2     mgfft =      18  mpssoang =       3    mqgrid =    3001
     natom =       2  nloc_mem =       1    nspden =       1   nspinor =       1
    nsppol =       1      nsym =      48    n1xccc =    2501    ntypat =       1
    occopt =       1   xclevel =       1
-    mband =          20        mffmem =           1         mkmem =           6
       mpw =         200          nfft =        5832          nkpt =           6
================================================================================
P This job should need less than                       2.634 Mbytes of memory.
  Rough estimation (10% accuracy) of disk space for files :
_ WF disk file :      0.368 Mbytes ; DEN or POT disk file :      0.046 Mbytes.
================================================================================


 DATASET    6 : space group Fd -3 m (#227); Bravais cF (face-center cubic)
================================================================================
 Values of the parameters that define the memory need for DATASET  6.
     intxc =       0    ionmov =       0      iscf =       7    lmnmax =       2
     lnmax =       2     mgfft =      18  mpssoang =       3    mqgrid =    3001
     natom =       2  nloc_mem =       1    nspden =       1   nspinor =       1
    nsppol =       1      nsym =      48    n1xccc =    2501    ntypat =       1
    occopt =       1   xclevel =       1
-    mband =          30        mffmem =           1         mkmem =           6
       mpw =         200          nfft =        5832          nkpt =           6
================================================================================
P This job should need less than                       2.840 Mbytes of memory.
  Rough estimation (10% accuracy) of disk space for files :
_ WF disk file :      0.551 Mbytes ; DEN or POT disk file :      0.046 Mbytes.
================================================================================

--------------------------------------------------------------------------------
------------- Echo of variables that govern the present computation ------------
--------------------------------------------------------------------------------
-
- outvars: echo of selected default values                                      
-   iomode0 =  0 , fftalg0 =112 , wfoptalg0 =  0
-
- outvars: echo of global parameters not present in the input file              
-  max_nthreads =    0
-
 -outvars: echo values of preprocessed input variables --------
            acell      1.0000000000E+00  1.0000000000E+00  1.0000000000E+00 Bohr
              amu      2.80855000E+01
             bdgw4          1       8       1       8       1       8       1       8
                            1       8       1       8
             bdgw5          1       8       1       8       1       8       1       8
                            1       8       1       8
             bdgw6          1       8       1       8       1       8       1       8
                            1       8       1       8
             ecut1     6.00000000E+00 Hartree
             ecut2     6.00000000E+00 Hartree
             ecut3     5.91438161E+00 Hartree
             ecut4     5.91438161E+00 Hartree
             ecut5     5.91438161E+00 Hartree
             ecut6     5.91438161E+00 Hartree
          ecuteps1     0.00000000E+00 Hartree
          ecuteps2     0.00000000E+00 Hartree
          ecuteps3     3.69648850E+00 Hartree
          ecuteps4     3.69648850E+00 Hartree
          ecuteps5     3.69648850E+00 Hartree
          ecuteps6     3.69648850E+00 Hartree
         ecutsigx1     0.00000000E+00 Hartree
         ecutsigx2     0.00000000E+00 Hartree
         ecutsigx3     0.00000000E+00 Hartree
         ecutsigx4     5.91438161E+00 Hartree
         ecutsigx5     5.91438161E+00 Hartree
         ecutsigx6     5.91438161E+00 Hartree
          ecutwfn1     0.00000000E+00 Hartree
          ecutwfn2     0.00000000E+00 Hartree
          ecutwfn3     5.91438161E+00 Hartree
          ecutwfn4     5.91438161E+00 Hartree
          ecutwfn5     5.91438161E+00 Hartree
          ecutwfn6     5.91438161E+00 Hartree
-          fftalg         112
           getden1          0
           getden2          1
           getden3          0
           getden4          0
           getden5          0
           getden6          0
           getscr1          0
           getscr2          0
           getscr3          0
           getscr4          3
           getscr5          3
           getscr6          3
           getwfk1          0
           getwfk2          0
           getwfk3          2
           getwfk4          2
           getwfk5          2
           getwfk6          2
          inclvkb1          2
          inclvkb2          2
          inclvkb3          0
          inclvkb4          2
          inclvkb5          2
          inclvkb6          2
             iscf1          7
             iscf2         -2
             iscf3          7
             iscf4          7
             iscf5          7
             iscf6          7
           istwfk2       0    0    1    0    1    1
           istwfk3       0    0    1    0    1    1
           istwfk4       0    0    1    0    1    1
           istwfk5       0    0    1    0    1    1
           istwfk6       0    0    1    0    1    1
           jdtset        1    2    3    4    5    6
              kpt1    -2.50000000E-01  5.00000000E-01  0.00000000E+00
                      -2.50000000E-01  0.00000000E+00  0.00000000E+00
              kpt2    -2.50000000E-01 -2.50000000E-01  0.00000000E+00
                      -2.50000000E-01  2.50000000E-01  0.00000000E+00
                       5.00000000E-01  5.00000000E-01  0.00000000E+00
                      -2.50000000E-01  5.00000000E-01  2.50000000E-01
                       5.00000000E-01  0.00000000E+00  0.00000000E+00
                       0.00000000E+00  0.00000000E+00  0.00000000E+00
              kpt3    -2.50000000E-01 -2.50000000E-01  0.00000000E+00
                      -2.50000000E-01  2.50000000E-01  0.00000000E+00
                       5.00000000E-01  5.00000000E-01  0.00000000E+00
                      -2.50000000E-01  5.00000000E-01  2.50000000E-01
                       5.00000000E-01  0.00000000E+00  0.00000000E+00
                       0.00000000E+00  0.00000000E+00  0.00000000E+00
              kpt4    -2.50000000E-01 -2.50000000E-01  0.00000000E+00
                      -2.50000000E-01  2.50000000E-01  0.00000000E+00
                       5.00000000E-01  5.00000000E-01  0.00000000E+00
                      -2.50000000E-01  5.00000000E-01  2.50000000E-01
                       5.00000000E-01  0.00000000E+00  0.00000000E+00
                       0.00000000E+00  0.00000000E+00  0.00000000E+00
              kpt5    -2.50000000E-01 -2.50000000E-01  0.00000000E+00
                      -2.50000000E-01  2.50000000E-01  0.00000000E+00
                       5.00000000E-01  5.00000000E-01  0.00000000E+00
                      -2.50000000E-01  5.00000000E-01  2.50000000E-01
                       5.00000000E-01  0.00000000E+00  0.00000000E+00
                       0.00000000E+00  0.00000000E+00  0.00000000E+00
              kpt6    -2.50000000E-01 -2.50000000E-01  0.00000000E+00
                      -2.50000000E-01  2.50000000E-01  0.00000000E+00
                       5.00000000E-01  5.00000000E-01  0.00000000E+00
                      -2.50000000E-01  5.00000000E-01  2.50000000E-01
                       5.00000000E-01  0.00000000E+00  0.00000000E+00
                       0.00000000E+00  0.00000000E+00  0.00000000E+00
            kptgw4    -2.50000000E-01 -2.50000000E-01  0.00000000E+00
                      -2.50000000E-01  2.50000000E-01  0.00000000E+00
                       5.00000000E-01  5.00000000E-01  0.00000000E+00
                      -2.50000000E-01  5.00000000E-01  2.50000000E-01
                       5.00000000E-01  0.00000000E+00  0.00000000E+00
                       0.00000000E+00  0.00000000E+00  0.00000000E+00
            kptgw5    -2.50000000E-01 -2.50000000E-01  0.00000000E+00
                      -2.50000000E-01  2.50000000E-01  0.00000000E+00
                       5.00000000E-01  5.00000000E-01  0.00000000E+00
                      -2.50000000E-01  5.00000000E-01  2.50000000E-01
                       5.00000000E-01  0.00000000E+00  0.00000000E+00
                       0.00000000E+00  0.00000000E+00  0.00000000E+00
            kptgw6    -2.50000000E-01 -2.50000000E-01  0.00000000E+00
                      -2.50000000E-01  2.50000000E-01  0.00000000E+00
                       5.00000000E-01  5.00000000E-01  0.00000000E+00
                      -2.50000000E-01  5.00000000E-01  2.50000000E-01
                       5.00000000E-01  0.00000000E+00  0.00000000E+00
                       0.00000000E+00  0.00000000E+00  0.00000000E+00
         kptrlatt        2   -2    2     -2    2    2     -2   -2    2
          kptrlen      2.06687963E+01
P           mkmem1          2
P           mkmem2          6
P           mkmem3          6
P           mkmem4          6
P           mkmem5          6
P           mkmem6          6
            natom           2
            nband1          4
            nband2         35
            nband3         25
            nband4         10
            nband5         20
            nband6         30
           nbdbuf1          0
           nbdbuf2          5
           nbdbuf3          0
           nbdbuf4          0
           nbdbuf5          0
           nbdbuf6          0
           ndtset           6
            ngfft          18      18      18
             nkpt1          2
             nkpt2          6
             nkpt3          6
             nkpt4          6
             nkpt5          6
             nkpt6          6
           nkptgw1          0
           nkptgw2          0
           nkptgw3          0
           nkptgw4          6
           nkptgw5          6
           nkptgw6          6
           npweps1          0
           npweps2          0
           npweps3        113
           npweps4        113
           npweps5        113
           npweps6        113
          npwsigx1          0
          npwsigx2          0
          npwsigx3          0
          npwsigx4        181
          npwsigx5        181
          npwsigx6        181
           npwwfn1          0
           npwwfn2          0
           npwwfn3        181
           npwwfn4        181
           npwwfn5        181
           npwwfn6        181
             nsym          48
           ntypat           1
              occ1     2.000000  2.000000  2.000000  2.000000
              occ3     2.000000  2.000000  2.000000  2.000000  0.000000  0.000000
                       0.000000  0.000000  0.000000  0.000000  0.000000  0.000000
                       0.000000  0.000000  0.000000  0.000000  0.000000  0.000000
                       0.000000  0.000000  0.000000  0.000000  0.000000  0.000000
                       0.000000
              occ4     2.000000  2.000000  2.000000  2.000000  0.000000  0.000000
                       0.000000  0.000000  0.000000  0.000000
              occ5     2.000000  2.000000  2.000000  2.000000  0.000000  0.000000
                       0.000000  0.000000  0.000000  0.000000  0.000000  0.000000
                       0.000000  0.000000  0.000000  0.000000  0.000000  0.000000
                       0.000000  0.000000
              occ6     2.000000  2.000000  2.000000  2.000000  0.000000  0.000000
                       0.000000  0.000000  0.000000  0.000000  0.000000  0.000000
                       0.000000  0.000000  0.000000  0.000000  0.000000  0.000000
                       0.000000  0.000000  0.000000  0.000000  0.000000  0.000000
                       0.000000  0.000000  0.000000  0.000000  0.000000  0.000000
        optdriver1          0
        optdriver2          0
        optdriver3          3
        optdriver4          4
        optdriver5          4
        optdriver6          4
           ppmfrq1     0.00000000E+00 Hartree
           ppmfrq2     0.00000000E+00 Hartree
           ppmfrq3     6.13713734E-01 Hartree
           ppmfrq4     0.00000000E+00 Hartree
           ppmfrq5     0.00000000E+00 Hartree
           ppmfrq6     0.00000000E+00 Hartree
            rprim      6.3285005521E+00  0.0000000000E+00  3.6537614973E+00
                       2.1095001840E+00  5.9665675402E+00  3.6537614973E+00
                       0.0000000000E+00  0.0000000000E+00  7.3075229946E+00
           shiftk1     5.00000000E-01  5.00000000E-01  5.00000000E-01
           shiftk2     0.00000000E+00  0.00000000E+00  0.00000000E+00
           shiftk3     0.00000000E+00  0.00000000E+00  0.00000000E+00
           shiftk4     0.00000000E+00  0.00000000E+00  0.00000000E+00
           shiftk5     0.00000000E+00  0.00000000E+00  0.00000000E+00
           shiftk6     0.00000000E+00  0.00000000E+00  0.00000000E+00
          spgroup         227
           symrel      1  0  0   0  1  0   0  0  1      -1  0  0   0 -1  0   0  0 -1
                       0 -1  1   0 -1  0   1 -1  0       0  1 -1   0  1  0  -1  1  0
                      -1  0  0  -1  0  1  -1  1  0       1  0  0   1  0 -1   1 -1  0
                       0  1 -1   1  0 -1   0  0 -1       0 -1  1  -1  0  1   0  0  1
                      -1  0  0  -1  1  0  -1  0  1       1  0  0   1 -1  0   1  0 -1
                       0 -1  1   1 -1  0   0 -1  0       0  1 -1  -1  1  0   0  1  0
                       1  0  0   0  0  1   0  1  0      -1  0  0   0  0 -1   0 -1  0
                       0  1 -1   0  0 -1   1  0 -1       0 -1  1   0  0  1  -1  0  1
                      -1  0  1  -1  1  0  -1  0  0       1  0 -1   1 -1  0   1  0  0
                       0 -1  0   1 -1  0   0 -1  1       0  1  0  -1  1  0   0  1 -1
                       1  0 -1   0  0 -1   0  1 -1      -1  0  1   0  0  1   0 -1  1
                       0  1  0   0  0  1   1  0  0       0 -1  0   0  0 -1  -1  0  0
                       1  0 -1   0  1 -1   0  0 -1      -1  0  1   0 -1  1   0  0  1
                       0 -1  0   0 -1  1   1 -1  0       0  1  0   0  1 -1  -1  1  0
                      -1  0  1  -1  0  0  -1  1  0       1  0 -1   1  0  0   1 -1  0
                       0  1  0   1  0  0   0  0  1       0 -1  0  -1  0  0   0  0 -1
                       0  0 -1   0  1 -1   1  0 -1       0  0  1   0 -1  1  -1  0  1
                       1 -1  0   0 -1  1   0 -1  0      -1  1  0   0  1 -1   0  1  0
                       0  0  1   1  0  0   0  1  0       0  0 -1  -1  0  0   0 -1  0
                      -1  1  0  -1  0  0  -1  0  1       1 -1  0   1  0  0   1  0 -1
                       0  0  1   0  1  0   1  0  0       0  0 -1   0 -1  0  -1  0  0
                       1 -1  0   0 -1  0   0 -1  1      -1  1  0   0  1  0   0  1 -1
                       0  0 -1   1  0 -1   0  1 -1       0  0  1  -1  0  1   0 -1  1
                      -1  1  0  -1  0  1  -1  0  0       1 -1  0   1  0 -1   1  0  0
         symsigma1       0
         symsigma2       0
         symsigma3       0
         symsigma4       1
         symsigma5       1
         symsigma6       1
           timopt          -1
            tnons      0.0000000  0.0000000  0.0000000     0.2500000  0.2500000  0.2500000
                       0.0000000  0.0000000  0.0000000     0.2500000  0.2500000  0.2500000
                       0.0000000  0.0000000  0.0000000     0.2500000  0.2500000  0.2500000
                       0.0000000  0.0000000  0.0000000     0.2500000  0.2500000  0.2500000
                       0.0000000  0.0000000  0.0000000     0.2500000  0.2500000  0.2500000
                       0.0000000  0.0000000  0.0000000     0.2500000  0.2500000  0.2500000
                       0.0000000  0.0000000  0.0000000     0.2500000  0.2500000  0.2500000
                       0.0000000  0.0000000  0.0000000     0.2500000  0.2500000  0.2500000
                       0.0000000  0.0000000  0.0000000     0.2500000  0.2500000  0.2500000
                       0.0000000  0.0000000  0.0000000     0.2500000  0.2500000  0.2500000
                       0.0000000  0.0000000  0.0000000     0.2500000  0.2500000  0.2500000
                       0.0000000  0.0000000  0.0000000     0.2500000  0.2500000  0.2500000
                       0.0000000  0.0000000  0.0000000     0.2500000  0.2500000  0.2500000
                       0.0000000  0.0000000  0.0000000     0.2500000  0.2500000  0.2500000
                       0.0000000  0.0000000  0.0000000     0.2500000  0.2500000  0.2500000
                       0.0000000  0.0000000  0.0000000     0.2500000  0.2500000  0.2500000
                       0.0000000  0.0000000  0.0000000     0.2500000  0.2500000  0.2500000
                       0.0000000  0.0000000  0.0000000     0.2500000  0.2500000  0.2500000
                       0.0000000  0.0000000  0.0000000     0.2500000  0.2500000  0.2500000
                       0.0000000  0.0000000  0.0000000     0.2500000  0.2500000  0.2500000
                       0.0000000  0.0000000  0.0000000     0.2500000  0.2500000  0.2500000
                       0.0000000  0.0000000  0.0000000     0.2500000  0.2500000  0.2500000
                       0.0000000  0.0000000  0.0000000     0.2500000  0.2500000  0.2500000
                       0.0000000  0.0000000  0.0000000     0.2500000  0.2500000  0.2500000
           tolvrs1     1.00000000E-06
           tolvrs2     0.00000000E+00
           tolvrs3     0.00000000E+00
           tolvrs4     0.00000000E+00
           tolvrs5     0.00000000E+00
           tolvrs6     0.00000000E+00
           tolwfr1     0.00000000E+00
           tolwfr2     1.00000000E-12
           tolwfr3     0.00000000E+00
           tolwfr4     0.00000000E+00
           tolwfr5     0.00000000E+00
           tolwfr6     0.00000000E+00
            typat      1  1
              wtk1       0.75000    0.25000
              wtk2       0.18750    0.37500    0.09375    0.18750    0.12500    0.03125
              wtk3       0.18750    0.37500    0.09375    0.18750    0.12500    0.03125
              wtk4       0.18750    0.37500    0.09375    0.18750    0.12500    0.03125
              wtk5       0.18750    0.37500    0.09375    0.18750    0.12500    0.03125
              wtk6       0.18750    0.37500    0.09375    0.18750    0.12500    0.03125
           xangst      0.0000000000E+00  0.0000000000E+00  0.0000000000E+00
                       1.1162994189E+00  7.8934288895E-01  1.9334873100E+00
            xcart      0.0000000000E+00  0.0000000000E+00  0.0000000000E+00
                       2.1095001840E+00  1.4916418850E+00  3.6537614973E+00
             xred      0.0000000000E+00  0.0000000000E+00  0.0000000000E+00
                       2.5000000000E-01  2.5000000000E-01  2.5000000000E-01
            znucl       14.00000

================================================================================

 chkinp: Checking input parameters for consistency, jdtset=   1.

 chkinp: Checking input parameters for consistency, jdtset=   2.

 chkinp: Checking input parameters for consistency, jdtset=   3.

 chkinp: Checking input parameters for consistency, jdtset=   4.

 chkinp: Checking input parameters for consistency, jdtset=   5.

 chkinp: Checking input parameters for consistency, jdtset=   6.

================================================================================
== DATASET  1 ==================================================================
-   nproc =    1

 Exchange-correlation functional for the present dataset will be:
  LDA: new Teter (4/93) with spin-polarized option - ixc=1
 Citation for XC functional:
  S. Goedecker, M. Teter, J. Huetter, PRB 54, 1703 (1996)

 Real(R)+Recip(G) space primitive vectors, cartesian coordinates (Bohr,Bohr^-1):
 R(1)=  6.3285006  0.0000000  3.6537615  G(1)=  0.1580153 -0.0558668  0.0000000
 R(2)=  2.1095002  5.9665675  3.6537615  G(2)=  0.0000000  0.1676005  0.0000000
 R(3)=  0.0000000  0.0000000  7.3075230  G(3)= -0.0790077 -0.0558668  0.1368453
 Unit cell volume ucvol=  2.7592787E+02 bohr^3
 Angles (23,13,12)=  6.00000000E+01  6.00000000E+01  6.00000000E+01 degrees

 getcut: wavevector=  0.0000  0.0000  0.0000  ngfft=  18  18  18
         ecut(hartree)=      6.000   => boxcut(ratio)=   2.24077

 getcut : COMMENT -
  Note that boxcut > 2.2 ; recall that boxcut=Gcut(box)/Gcut(sphere) = 2
  is sufficient for exact treatment of convolution.
  Such a large boxcut is a waste : you could raise ecut
  e.g. ecut=    7.531595 Hartrees makes boxcut=2


--- Pseudopotential description ------------------------------------------------
- pspini: atom type   1  psp file is /Users/gmatteo/git/abipy/abipy/data/pseudos/14si.pspnc
- pspatm: opening atomic psp file    /Users/gmatteo/git/abipy/abipy/data/pseudos/14si.pspnc
-  Troullier-Martins psp for element  Si        Thu Oct 27 17:31:21 EDT 1994
- 14.00000   4.00000    940714                znucl, zion, pspdat
    1    1    2    2      2001   0.00000      pspcod,pspxc,lmax,lloc,mmax,r2well
    0   5.907  14.692    1   2.0872718        l,e99.0,e99.9,nproj,rcpsp
   0.00000000   0.00000000   0.00000000   0.00000000     rms, ekb1, ekb2, epsatm
    1   2.617   4.181    1   2.0872718        l,e99.0,e99.9,nproj,rcpsp
   0.00000000   0.00000000   0.00000000   0.00000000     rms, ekb1, ekb2, epsatm
    2   0.000   0.000    0   2.0872718        l,e99.0,e99.9,nproj,rcpsp
   0.00000000   0.00000000   0.00000000   0.00000000     rms, ekb1, ekb2, epsatm
    1.80626423934776    0.22824404341771    1.17378968127746   rchrg,fchrg,qchrg
 pspatm: epsatm=    1.43386982
         --- l  ekb(1:nproj) -->
             0    3.287949
             1    1.849886
 pspatm: atomic psp has been read  and splines computed

   2.29419171E+01                                ecore*ucvol(ha*bohr**3)
--------------------------------------------------------------------------------

_setup2: Arith. and geom. avg. npw (full set) are     192.250     192.250

================================================================================

     iter   Etot(hartree)      deltaE(h)  residm     vres2
 ETOT  1  -8.8539699324909    -8.854E+00 1.523E-03 4.088E+00
 ETOT  2  -8.8589323410702    -4.962E-03 1.688E-08 1.757E-01
 ETOT  3  -8.8590552906119    -1.229E-04 3.979E-07 4.059E-03
 ETOT  4  -8.8590571321711    -1.842E-06 1.028E-08 1.372E-05
 ETOT  5  -8.8590571408654    -8.694E-09 3.447E-11 8.705E-09

 At SCF step    5       vres2   =  8.70E-09 < tolvrs=  1.00E-06 =>converged.

 Cartesian components of stress tensor (hartree/bohr^3)
  sigma(1 1)=  1.68072705E-04  sigma(3 2)=  0.00000000E+00
  sigma(2 2)=  1.68072705E-04  sigma(3 1)=  0.00000000E+00
  sigma(3 3)=  1.68072705E-04  sigma(2 1)=  2.62236934E-15

 Integrated electronic density in atomic spheres:
 ------------------------------------------------
 Atom  Sphere_radius  Integrated_density
    1        2.00000          1.69826555
    2        2.00000          1.70348788
================================================================================

 ----iterations are completed or convergence reached----

 Mean square residual over all n,k,spin=   1.3624E-11; max=  3.4467E-11
 reduced coordinates (array xred) for    2 atoms
       0.000000000000      0.000000000000      0.000000000000
       0.250000000000      0.250000000000      0.250000000000
 rms dE/dt=  2.9366E-28; max dE/dt=  4.6609E-28; dE/dt below (all hartree)
    1      -0.000000000000     -0.000000000000     -0.000000000000
    2       0.000000000000      0.000000000000     -0.000000000000

 cartesian coordinates (angstrom) at end:
    1      0.00000000000000     0.00000000000000     0.00000000000000
    2      1.11629941890244     0.78934288894668     1.93348730999483

 cartesian forces (hartree/bohr) at end:
    1      0.00000000000000     0.00000000000000    -0.00000000000000
    2     -0.00000000000000    -0.00000000000000     0.00000000000000
 frms,max,avg= 3.9934495E-29 5.5475380E-29   0.000E+00  0.000E+00  0.000E+00 h/b

 cartesian forces (eV/Angstrom) at end:
    1      0.00000000000000     0.00000000000000    -0.00000000000000
    2     -0.00000000000000    -0.00000000000000     0.00000000000000
 frms,max,avg= 2.0535141E-27 2.8526585E-27   0.000E+00  0.000E+00  0.000E+00 e/A
 length scales=  1.000000000000  1.000000000000  1.000000000000 bohr
              =  0.529177208590  0.529177208590  0.529177208590 angstroms
 prteigrs : about to open file out_DS1_EIG
 Fermi (or HOMO) energy (hartree) =   0.17872   Average Vxc (hartree)=  -0.34938
 Eigenvalues (hartree) for nkpt=   2  k points:
 kpt#   1, nband=  4, wtk=  0.75000, kpt= -0.2500  0.5000  0.0000 (reduced coord)
  -0.13042   -0.02698    0.07698    0.12575
 prteigrs : prtvol=0 or 1, do not print more k-points.


--------------------------------------------------------------------------------
 Components of total free energy (in Hartree) :

    Kinetic energy  =  2.98424665750709E+00
    Hartree energy  =  5.60014857400777E-01
    XC energy       = -3.52181650133500E+00
    Ewald energy    = -8.33998919456550E+00
    PspCore energy  =  8.31446161871628E-02
    Loc. psp. energy= -2.53296403437180E+00
    NL   psp  energy=  1.90830645831186E+00
    >>>>>>>>> Etotal= -8.85905714086542E+00

 Other information on the energy :
    Total energy(eV)= -2.41067204497763E+02 ; Band energy (Ha)=   1.7780818794E-01
--------------------------------------------------------------------------------

 Cartesian components of stress tensor (hartree/bohr^3)
  sigma(1 1)=  1.68072705E-04  sigma(3 2)=  0.00000000E+00
  sigma(2 2)=  1.68072705E-04  sigma(3 1)=  0.00000000E+00
  sigma(3 3)=  1.68072705E-04  sigma(2 1)=  2.62236934E-15

-Cartesian components of stress tensor (GPa)         [Pressure= -4.9449E+00 GPa]
- sigma(1 1)=  4.94486887E+00  sigma(3 2)=  0.00000000E+00
- sigma(2 2)=  4.94486887E+00  sigma(3 1)=  0.00000000E+00
- sigma(3 3)=  4.94486887E+00  sigma(2 1)=  7.71527567E-11

================================================================================
== DATASET  2 ==================================================================
-   nproc =    1

 mkfilename : getden/=0, take file _DEN from output of DATASET   1.

 Exchange-correlation functional for the present dataset will be:
  LDA: new Teter (4/93) with spin-polarized option - ixc=1
 Citation for XC functional:
  S. Goedecker, M. Teter, J. Huetter, PRB 54, 1703 (1996)

 Real(R)+Recip(G) space primitive vectors, cartesian coordinates (Bohr,Bohr^-1):
 R(1)=  6.3285006  0.0000000  3.6537615  G(1)=  0.1580153 -0.0558668  0.0000000
 R(2)=  2.1095002  5.9665675  3.6537615  G(2)=  0.0000000  0.1676005  0.0000000
 R(3)=  0.0000000  0.0000000  7.3075230  G(3)= -0.0790077 -0.0558668  0.1368453
 Unit cell volume ucvol=  2.7592787E+02 bohr^3
 Angles (23,13,12)=  6.00000000E+01  6.00000000E+01  6.00000000E+01 degrees

 getcut: wavevector=  0.0000  0.0000  0.0000  ngfft=  18  18  18
         ecut(hartree)=      6.000   => boxcut(ratio)=   2.24077

 getcut : COMMENT -
  Note that boxcut > 2.2 ; recall that boxcut=Gcut(box)/Gcut(sphere) = 2
  is sufficient for exact treatment of convolution.
  Such a large boxcut is a waste : you could raise ecut
  e.g. ecut=    7.531595 Hartrees makes boxcut=2

--------------------------------------------------------------------------------


================================================================================
 prteigrs : about to open file out_DS2_EIG
 Non-SCF case, kpt    1 ( -0.25000 -0.25000  0.00000), residuals and eigenvalues=
  3.76E-14  4.63E-14  1.51E-13  2.06E-13  1.52E-13  1.39E-13  9.90E-14  7.21E-14
  2.76E-14  2.18E-14  2.62E-14  2.92E-13  2.78E-13  5.20E-14  4.88E-13  8.56E-13
  2.51E-13  1.69E-13  1.26E-13  2.80E-13  8.44E-14  2.17E-13  2.73E-13  6.85E-13
  8.20E-13  4.98E-13  1.70E-13  7.63E-13  5.93E-13  9.50E-13  2.60E-13  2.58E-11
  4.24E-10  6.03E-09  2.99E-05
 -1.9006E-01  7.6398E-02  1.3735E-01  1.3735E-01  2.4582E-01  3.1849E-01
  4.1454E-01  4.1454E-01  4.8866E-01  5.4339E-01  6.0889E-01  6.8125E-01
  6.8125E-01  7.0508E-01  8.3602E-01  8.3602E-01  8.8849E-01  9.3343E-01
  9.7004E-01  1.1231E+00  1.1813E+00  1.2029E+00  1.2029E+00  1.2731E+00
  1.2731E+00  1.2992E+00  1.3098E+00  1.4729E+00  1.4992E+00  1.5148E+00
  1.5148E+00  1.5607E+00  1.5607E+00  1.5779E+00  1.6317E+00
  prteigrs : nnsclo,ikpt=   30    1 max resid (incl. the buffer)=  2.99189E-05
 prteigrs : prtvol=0 or 1, do not print more k-points.

  prteigrs : nnsclo,ikpt=   30    2 max resid (incl. the buffer)=  1.81800E-05
  prteigrs : nnsclo,ikpt=   30    3 max resid (incl. the buffer)=  1.55744E-07
  prteigrs : nnsclo,ikpt=   30    4 max resid (incl. the buffer)=  3.85299E-09
  prteigrs : nnsclo,ikpt=   30    5 max resid (incl. the buffer)=  6.06194E-06
  prteigrs : nnsclo,ikpt=   30    6 max resid (incl. the buffer)=  1.53156E-05

 Integrated electronic density in atomic spheres:
 ------------------------------------------------
 Atom  Sphere_radius  Integrated_density
    1        2.00000          1.69826555
    2        2.00000          1.70348788
================================================================================

 ----iterations are completed or convergence reached----

 Mean square residual over all n,k,spin=   3.7217E-07; max=  2.9919E-05
 reduced coordinates (array xred) for    2 atoms
       0.000000000000      0.000000000000      0.000000000000
       0.250000000000      0.250000000000      0.250000000000

 cartesian coordinates (angstrom) at end:
    1      0.00000000000000     0.00000000000000     0.00000000000000
    2      1.11629941890244     0.78934288894668     1.93348730999483
 length scales=  1.000000000000  1.000000000000  1.000000000000 bohr
              =  0.529177208590  0.529177208590  0.529177208590 angstroms
 prteigrs : about to open file out_DS2_EIG
 Eigenvalues (hartree) for nkpt=   6  k points:
 kpt#   1, nband= 35, wtk=  0.18750, kpt= -0.2500 -0.2500  0.0000 (reduced coord)
  -0.19006    0.07640    0.13735    0.13735    0.24582    0.31849    0.41454    0.41454
   0.48866    0.54339    0.60889    0.68125    0.68125    0.70508    0.83602    0.83602
   0.88849    0.93343    0.97004    1.12306    1.18129    1.20290    1.20290    1.27311
   1.27311    1.29922    1.30981    1.47287    1.49918    1.51485    1.51485    1.56073
   1.56073    1.57786    1.63168
 prteigrs : prtvol=0 or 1, do not print more k-points.


================================================================================
== DATASET  3 ==================================================================
-   nproc =    1

 mkfilename : getwfk/=0, take file _WFK from output of DATASET   2.

 Exchange-correlation functional for the present dataset will be:
  LDA: new Teter (4/93) with spin-polarized option - ixc=1
 Citation for XC functional:
  S. Goedecker, M. Teter, J. Huetter, PRB 54, 1703 (1996)

 SCREENING: Calculation of the susceptibility and dielectric matrices 

 Based on a program developped by R.W. Godby, V. Olevano, G. Onida, and L. Reining.
 Incorporated in ABINIT by V. Olevano, G.-M. Rignanese, and M. Torrent.
.Using double precision arithmetic ; gwpc =  8

 Real(R)+Recip(G) space primitive vectors, cartesian coordinates (Bohr,Bohr^-1):
 R(1)=  6.3285006  0.0000000  3.6537615  G(1)=  0.1580153 -0.0558668  0.0000000
 R(2)=  2.1095002  5.9665675  3.6537615  G(2)=  0.0000000  0.1676005  0.0000000
 R(3)=  0.0000000  0.0000000  7.3075230  G(3)= -0.0790077 -0.0558668  0.1368453
 Unit cell volume ucvol=  2.7592787E+02 bohr^3
 Angles (23,13,12)=  6.00000000E+01  6.00000000E+01  6.00000000E+01 degrees

--- Pseudopotential description ------------------------------------------------
- pspini: atom type   1  psp file is /Users/gmatteo/git/abipy/abipy/data/pseudos/14si.pspnc
- pspatm: opening atomic psp file    /Users/gmatteo/git/abipy/abipy/data/pseudos/14si.pspnc
-  Troullier-Martins psp for element  Si        Thu Oct 27 17:31:21 EDT 1994
- 14.00000   4.00000    940714                znucl, zion, pspdat
    1    1    2    2      2001   0.00000      pspcod,pspxc,lmax,lloc,mmax,r2well
    0   5.907  14.692    1   2.0872718        l,e99.0,e99.9,nproj,rcpsp
   0.00000000   0.00000000   0.00000000   0.00000000     rms, ekb1, ekb2, epsatm
    1   2.617   4.181    1   2.0872718        l,e99.0,e99.9,nproj,rcpsp
   0.00000000   0.00000000   0.00000000   0.00000000     rms, ekb1, ekb2, epsatm
    2   0.000   0.000    0   2.0872718        l,e99.0,e99.9,nproj,rcpsp
   0.00000000   0.00000000   0.00000000   0.00000000     rms, ekb1, ekb2, epsatm
    1.80626423934776    0.22824404341771    1.17378968127746   rchrg,fchrg,qchrg
 pspatm: epsatm=    1.43386982
         --- l  ekb(1:nproj) -->
             0    3.287949
             1    1.849886
 pspatm: atomic psp has been read  and splines computed

--------------------------------------------------------------------------------

 ==== K-mesh for the wavefunctions ====
 Number of points in the irreducible wedge :     6
 Reduced coordinates and weights : 

     1)    -2.50000000E-01 -2.50000000E-01  0.00000000E+00       0.18750
     2)    -2.50000000E-01  2.50000000E-01  0.00000000E+00       0.37500
     3)     5.00000000E-01  5.00000000E-01  0.00000000E+00       0.09375
     4)    -2.50000000E-01  5.00000000E-01  2.50000000E-01       0.18750
     5)     5.00000000E-01  0.00000000E+00  0.00000000E+00       0.12500
     6)     0.00000000E+00  0.00000000E+00  0.00000000E+00       0.03125

 Together with 48 symmetry operations and time-reversal symmetry 
 yields    32 points in the full Brillouin Zone.


 ==== Q-mesh for the screening function ====
 Number of points in the irreducible wedge :     6
 Reduced coordinates and weights : 

     1)     0.00000000E+00  0.00000000E+00  0.00000000E+00       0.03125
     2)     5.00000000E-01  5.00000000E-01  0.00000000E+00       0.09375
     3)     5.00000000E-01  2.50000000E-01  2.50000000E-01       0.37500
     4)     0.00000000E+00  5.00000000E-01  0.00000000E+00       0.12500
     5)     5.00000000E-01 -2.50000000E-01  2.50000000E-01       0.18750
     6)     0.00000000E+00 -2.50000000E-01 -2.50000000E-01       0.18750

 Together with 48 symmetry operations and time-reversal symmetry 
 yields    32 points in the full Brillouin Zone.


 setmesh: FFT mesh size selected  =  20x 20x 20
          total number of points  =     8000


- screening: taking advantage of time-reversal symmetry 
- Maximum band index for partially occupied states nbvw = 4
- Remaining bands to be divided among processors   nbcw = 21
- Number of bands treated by each node ~21

 Number of electrons calculated from density =    7.9999; Expected =    8.0000
 average of density, n =  0.028993
 r_s =    2.0193
 omega_plasma =   16.4248 [eV]


 calculating chi0 at frequencies [eV] :
  1    0.000000E+00    0.000000E+00
  2    0.000000E+00    1.670000E+01


--------------------------------------------------------------------------------
  q-point number  1        q = ( 0.000000, 0.000000, 0.000000) [r.l.u.]
--------------------------------------------------------------------------------
  chi0(G,G') at the    1 th omega   0.0000   0.0000 [eV]
       1       2       3       4       5       6       7       8       9
    1  -0.000   0.000  -0.000  -0.000   0.000   0.000  -0.000  -0.000   0.000
       -0.000   0.000   0.000  -0.000  -0.000   0.000   0.000  -0.000  -0.000

    2   0.000 -18.112  -0.000  -0.245   0.001  -0.246  -0.000  -0.258  -0.001
       -0.000  -0.000  -5.176  -0.000  -0.464   0.000  -0.465   0.000  -0.478

  chi0(G,G') at the    2 th omega   0.0000  16.7000 [eV]
       1       2       3       4       5       6       7       8       9
    1  -0.000   0.000  -0.000  -0.000   0.000   0.000  -0.000  -0.000   0.000
        0.000   0.000   0.000  -0.000  -0.000   0.000   0.000  -0.000  -0.000

    2   0.000  -6.979  -0.000  -0.011   0.001  -0.012  -0.000  -0.021  -0.001
       -0.000   0.000  -0.994  -0.000  -0.181   0.000  -0.181   0.000  -0.191

 For q-point:  0.000010 0.000020 0.000030
  dielectric constant =  28.5108
  dielectric constant without local fields =  31.6232

  Average fulfillment of the sum rule on Im[epsilon] for q-point    1 :     55.63  [%]
  Heads and wings of the symmetrical epsilon^-1(G,G') 

   Upper and lower wings at the    1 th omega   0.0000   0.0000 [eV]
       1       2       3       4       5       6       7       8       9
      0.035   0.003  -0.003  -0.010   0.010   0.010  -0.010  -0.003   0.003
     -0.000   0.003   0.003  -0.010  -0.010   0.010   0.010  -0.003  -0.003
       1       2       3       4       5       6       7       8       9
      0.035   0.003  -0.003  -0.010   0.010   0.010  -0.010  -0.003   0.003
     -0.000  -0.003  -0.003   0.010   0.010  -0.010  -0.010   0.003   0.003


   Upper and lower wings at the    2 th omega   0.0000  16.7000 [eV]
       1       2       3       4       5       6       7       8       9
      0.451   0.008  -0.008  -0.024   0.024   0.024  -0.024  -0.008   0.008
      0.000   0.008   0.008  -0.024  -0.024   0.024   0.024  -0.008  -0.008
       1       2       3       4       5       6       7       8       9
      0.451   0.008  -0.008  -0.024   0.024   0.024  -0.024  -0.008   0.008
      0.000  -0.008  -0.008   0.024   0.024  -0.024  -0.024   0.008   0.008




--------------------------------------------------------------------------------
  q-point number  2        q = ( 0.500000, 0.500000, 0.000000) [r.l.u.]
--------------------------------------------------------------------------------
  chi0(G,G') at the    1 th omega   0.0000   0.0000 [eV]
       1       2       3       4       5       6       7       8       9
    1 -18.336  -3.162  -1.285  -1.287  -3.163  -1.288  -3.161  -3.165  -1.284
        0.000  -3.165   1.284  -1.287   3.167  -1.287   3.165  -3.170   1.284

    2  -3.162 -14.946  -0.004  -0.204   0.016  -0.203   0.016  -0.110  -0.001
        3.165   0.000  -2.624   0.001   0.434   0.001   0.434   0.002  -0.412

  chi0(G,G') at the    2 th omega   0.0000  16.7000 [eV]
       1       2       3       4       5       6       7       8       9
    1  -4.327  -0.894  -0.246  -0.248  -0.895  -0.248  -0.894  -0.897  -0.245
       -0.000  -0.897   0.245  -0.248   0.898  -0.248   0.897  -0.901   0.246

    2  -0.894  -6.018  -0.003  -0.115   0.012  -0.114   0.012   0.043  -0.001
        0.897   0.000  -0.586   0.000  -0.062   0.000  -0.062   0.002  -0.113

  Average fulfillment of the sum rule on Im[epsilon] for q-point    2 :     70.70  [%]


--------------------------------------------------------------------------------
  q-point number  3        q = ( 0.500000, 0.250000, 0.250000) [r.l.u.]
--------------------------------------------------------------------------------
  chi0(G,G') at the    1 th omega   0.0000   0.0000 [eV]
       1       2       3       4       5       6       7       8       9
    1 -14.869  -2.511   0.393  -2.409  -2.411   0.393  -2.511  -2.410  -2.408
       -0.000  -2.511  -0.393  -2.410   2.409   0.393   2.511  -2.409   2.410

    2  -2.511 -15.389  -0.000  -0.542  -0.007  -0.196  -0.000  -0.544   0.007
        2.511   0.000  -3.500  -0.002  -0.021   0.000   0.218   0.002  -0.045

  chi0(G,G') at the    2 th omega   0.0000  16.7000 [eV]
       1       2       3       4       5       6       7       8       9
    1  -2.548  -0.708   0.245  -0.427  -0.428   0.245  -0.708  -0.427  -0.426
        0.000  -0.708  -0.245  -0.427   0.427   0.245   0.708  -0.426   0.427

    2  -0.708  -6.299  -0.000  -0.020  -0.005  -0.044  -0.000  -0.022   0.005
        0.708   0.000  -0.802  -0.001  -0.107   0.000  -0.087   0.001  -0.126

  Average fulfillment of the sum rule on Im[epsilon] for q-point    3 :     73.04  [%]


--------------------------------------------------------------------------------
  q-point number  4        q = ( 0.000000, 0.500000, 0.000000) [r.l.u.]
--------------------------------------------------------------------------------
  chi0(G,G') at the    1 th omega   0.0000   0.0000 [eV]
       1       2       3       4       5       6       7       8       9
    1 -14.714  -2.104  -2.719  -2.102  -2.720  -2.103  -2.719  -2.220   3.107
       -0.000  -2.102   2.717  -2.100   2.717  -2.101   2.717  -2.222  -3.107

    2  -2.104 -19.864  -0.005   0.076   0.009   0.082   0.009   0.130  -0.000
        2.102  -0.000  -2.793   0.000   0.087   0.000   0.087   0.001  -0.962

  chi0(G,G') at the    2 th omega   0.0000  16.7000 [eV]
       1       2       3       4       5       6       7       8       9
    1  -3.487  -0.367  -0.726  -0.366  -0.726  -0.366  -0.726  -0.862   0.530
        0.000  -0.365   0.724  -0.364   0.724  -0.365   0.724  -0.863  -0.531

    2  -0.367  -6.954  -0.004  -0.109   0.007  -0.104   0.007  -0.017  -0.000
        0.365   0.000  -0.654   0.000  -0.098   0.000  -0.097   0.001  -0.109

  Average fulfillment of the sum rule on Im[epsilon] for q-point    4 :     71.53  [%]


--------------------------------------------------------------------------------
  q-point number  5        q = ( 0.500000,-0.250000, 0.250000) [r.l.u.]
--------------------------------------------------------------------------------
  chi0(G,G') at the    1 th omega   0.0000   0.0000 [eV]
       1       2       3       4       5       6       7       8       9
    1 -19.676  -2.947  -1.459  -3.109  -2.598  -2.595  -3.108  -1.458  -2.951
       -0.000  -2.949   1.459  -3.104   2.593  -2.594   3.103  -1.459   2.953

    2  -2.947 -12.832  -0.001   0.129  -0.005   0.296  -0.010  -0.428   0.005
        2.949   0.000  -2.591  -0.002   0.141   0.004   0.268  -0.000  -0.040

  chi0(G,G') at the    2 th omega   0.0000  16.7000 [eV]
       1       2       3       4       5       6       7       8       9
    1  -4.978  -0.986  -0.062  -0.917  -0.675  -0.673  -0.916  -0.061  -0.990
        0.000  -0.988   0.062  -0.913   0.672  -0.672   0.913  -0.061   0.991

    2  -0.986  -5.298  -0.001   0.039  -0.004  -0.066  -0.008  -0.049   0.003
        0.988  -0.000  -0.500  -0.001  -0.057   0.003  -0.049  -0.000  -0.093

  Average fulfillment of the sum rule on Im[epsilon] for q-point    5 :     70.61  [%]


--------------------------------------------------------------------------------
  q-point number  6        q = ( 0.000000,-0.250000,-0.250000) [r.l.u.]
--------------------------------------------------------------------------------
  chi0(G,G') at the    1 th omega   0.0000   0.0000 [eV]
       1       2       3       4       5       6       7       8       9
    1 -10.955  -2.320  -0.113  -0.112  -2.320  -2.320  -0.113  -0.112  -2.320
        0.000  -2.321   0.112  -0.111   2.320  -2.321   0.112  -0.111   2.321

    2  -2.320 -17.281  -0.001  -0.620   0.006  -0.564  -0.004  -0.624   0.006
        2.321  -0.000  -3.604  -0.000   0.023   0.000  -0.556   0.005   0.002

  chi0(G,G') at the    2 th omega   0.0000  16.7000 [eV]
       1       2       3       4       5       6       7       8       9
    1  -1.405  -0.445   0.082   0.082  -0.445  -0.445   0.082   0.083  -0.445
       -0.000  -0.446  -0.082   0.083   0.445  -0.446  -0.082   0.083   0.446

    2  -0.445  -6.880  -0.001  -0.046   0.004   0.015  -0.003  -0.049   0.005
        0.446  -0.000  -0.887  -0.000  -0.126   0.000  -0.169   0.004  -0.143

  Average fulfillment of the sum rule on Im[epsilon] for q-point    6 :     77.86  [%]

================================================================================
== DATASET  4 ==================================================================
-   nproc =    1

 mkfilename : getwfk/=0, take file _WFK from output of DATASET   2.

 mkfilename : getscr/=0, take file _SCR from output of DATASET   3.

 Exchange-correlation functional for the present dataset will be:
  LDA: new Teter (4/93) with spin-polarized option - ixc=1
 Citation for XC functional:
  S. Goedecker, M. Teter, J. Huetter, PRB 54, 1703 (1996)

 SIGMA: Calculation of the GW corrections 

 Based on a program developped by R.W. Godby, V. Olevano, G. Onida, and L. Reining.
 Incorporated in ABINIT by V. Olevano, G.-M. Rignanese, and M. Torrent.
.Using double precision arithmetic ; gwpc =  8

 Real(R)+Recip(G) space primitive vectors, cartesian coordinates (Bohr,Bohr^-1):
 R(1)=  6.3285006  0.0000000  3.6537615  G(1)=  0.1580153 -0.0558668  0.0000000
 R(2)=  2.1095002  5.9665675  3.6537615  G(2)=  0.0000000  0.1676005  0.0000000
 R(3)=  0.0000000  0.0000000  7.3075230  G(3)= -0.0790077 -0.0558668  0.1368453
 Unit cell volume ucvol=  2.7592787E+02 bohr^3
 Angles (23,13,12)=  6.00000000E+01  6.00000000E+01  6.00000000E+01 degrees
--------------------------------------------------------------------------------

 ==== K-mesh for the wavefunctions ====
 Number of points in the irreducible wedge :     6
 Reduced coordinates and weights : 

     1)    -2.50000000E-01 -2.50000000E-01  0.00000000E+00       0.18750
     2)    -2.50000000E-01  2.50000000E-01  0.00000000E+00       0.37500
     3)     5.00000000E-01  5.00000000E-01  0.00000000E+00       0.09375
     4)    -2.50000000E-01  5.00000000E-01  2.50000000E-01       0.18750
     5)     5.00000000E-01  0.00000000E+00  0.00000000E+00       0.12500
     6)     0.00000000E+00  0.00000000E+00  0.00000000E+00       0.03125

 Together with 48 symmetry operations and time-reversal symmetry 
 yields    32 points in the full Brillouin Zone.


 ==== Q-mesh for screening function ====
 Number of points in the irreducible wedge :     6
 Reduced coordinates and weights : 

     1)     0.00000000E+00  0.00000000E+00  0.00000000E+00       0.03125
     2)     5.00000000E-01  5.00000000E-01  0.00000000E+00       0.09375
     3)     5.00000000E-01  2.50000000E-01  2.50000000E-01       0.37500
     4)     0.00000000E+00  5.00000000E-01  0.00000000E+00       0.12500
     5)     5.00000000E-01 -2.50000000E-01  2.50000000E-01       0.18750
     6)     0.00000000E+00 -2.50000000E-01 -2.50000000E-01       0.18750

 Together with 48 symmetry operations and time-reversal symmetry 
 yields    32 points in the full Brillouin Zone.


 setmesh: FFT mesh size selected  =  20x 20x 20
          total number of points  =     8000

 Number of electrons calculated from density =    7.9999; Expected =    8.0000
 average of density, n =  0.028993
 r_s =    2.0193
 omega_plasma =   16.4248 [eV]


 === KS Band Gaps ===
  >>>> For spin  1
   Minimum optical gap =   2.5156 [eV], located at k-point      :   0.0000  0.0000  0.0000
   Fundamental gap     =   0.6515 [eV], Top of valence bands at :   0.0000  0.0000  0.0000
                                        Bottom of conduction at :   0.5000  0.5000  0.0000
 SIGMA fundamental parameters:
 PLASMON POLE MODEL  1
 number of plane-waves for SigmaX                  181
 number of plane-waves for SigmaC and W            113
 number of plane-waves for wavefunctions           181
 number of bands                                    10
 number of independent spin polarizations            1
 number of spinorial components                      1
 number of k-points in IBZ                           6
 number of q-points in IBZ                           6
 number of symmetry operations                      48
 number of k-points in BZ                           32
 number of q-points in BZ                           32
 number of frequencies for dSigma/dE                 9
 frequency step for dSigma/dE [eV]                0.25
 number of omega for Sigma on real axis              0
 max omega for Sigma on real axis  [eV]           0.00
 zcut for avoiding poles [eV]                     0.10

 EPSILON^-1 parameters (SCR file):
 dimension of the eps^-1 matrix on file            113
 dimension of the eps^-1 matrix used               113
 number of plane-waves for wavefunctions           181
 number of bands                                    25
 number of q-points in IBZ                           6
 number of frequencies                               2
 number of real frequencies                          1
 number of imag frequencies                          1

 matrix elements of self-energy operator (all in [eV])

 Perturbative Calculation

 k =   -0.250  -0.250   0.000
 Band     E0 <VxcLDA>   SigX SigC(E0)      Z dSigC/dE  Sig(E)    E-E0       E
    1  -5.172 -10.446 -17.067   7.318   0.577  -0.732 -10.044   0.402  -4.770
    2   2.079 -11.021 -14.197   3.672   0.759  -0.318 -10.644   0.376   2.455
    3   3.737 -10.605 -13.054   3.002   0.777  -0.287 -10.175   0.430   4.167
    4   3.737 -10.605 -13.054   3.002   0.777  -0.287 -10.175   0.430   4.167
    5   6.689  -9.350  -5.272  -2.697   0.801  -0.249  -8.244   1.106   7.795
    6   8.667  -9.202  -4.524  -2.976   0.805  -0.241  -7.831   1.371  10.037
    7  11.280 -10.488  -5.231  -3.250   0.782  -0.279  -8.920   1.569  12.849
    8  11.280 -10.488  -5.231  -3.250   0.782  -0.279  -8.920   1.569  12.849

 E^0_gap          2.952
 E^GW_gap         3.628
 DeltaE^GW_gap    0.676


 k =   -0.250   0.250   0.000
 Band     E0 <VxcLDA>   SigX SigC(E0)      Z dSigC/dE  Sig(E)    E-E0       E
    1  -4.214 -10.568 -16.788   6.733   0.660  -0.515 -10.230   0.339  -3.875
    2   0.151 -10.759 -14.884   4.466   0.726  -0.377 -10.511   0.248   0.399
    3   1.883  -9.983 -12.902   3.298   0.759  -0.317  -9.696   0.287   2.170
    4   4.296 -10.823 -13.173   2.952   0.780  -0.282 -10.354   0.470   4.766
    5   7.980  -9.566  -5.057  -2.899   0.801  -0.249  -8.277   1.289   9.268
    6  10.346 -10.045  -4.812  -3.365   0.783  -0.277  -8.582   1.463  11.809
    7  10.658 -10.143  -5.335  -2.893   0.795  -0.258  -8.620   1.523  12.182
    8  11.494  -9.823  -4.359  -3.437   0.785  -0.273  -8.232   1.591  13.085

 E^0_gap          3.683
 E^GW_gap         4.502
 DeltaE^GW_gap    0.819


 k =    0.500   0.500   0.000
 Band     E0 <VxcLDA>   SigX SigC(E0)      Z dSigC/dE  Sig(E)    E-E0       E
    1  -2.143 -10.713 -15.982   5.624   0.690  -0.450 -10.468   0.245  -1.899
    2  -2.143 -10.713 -15.982   5.624   0.690  -0.450 -10.468   0.245  -1.899
    3   2.779 -10.481 -13.439   3.352   0.766  -0.305 -10.179   0.302   3.081
    4   2.779 -10.481 -13.439   3.352   0.766  -0.305 -10.179   0.302   3.081
    5   6.284  -8.999  -4.978  -2.711   0.805  -0.242  -7.944   1.055   7.340
    6   6.284  -8.999  -4.978  -2.711   0.805  -0.242  -7.944   1.055   7.340
    7  15.388 -10.498  -3.817  -4.352   0.730  -0.370  -8.798   1.700  17.088
    8  15.388 -10.498  -3.817  -4.352   0.730  -0.370  -8.798   1.700  17.088

 E^0_gap          3.505
 E^GW_gap         4.259
 DeltaE^GW_gap    0.753


 k =   -0.250   0.500   0.250
 Band     E0 <VxcLDA>   SigX SigC(E0)      Z dSigC/dE  Sig(E)    E-E0       E
    1  -1.993 -10.828 -16.044   5.567   0.692  -0.446 -10.586   0.242  -1.751
    2  -1.993 -10.828 -16.044   5.567   0.692  -0.446 -10.586   0.242  -1.751
    3   1.783  -9.918 -12.919   3.337   0.759  -0.317  -9.663   0.254   2.038
    4   1.783  -9.918 -12.919   3.337   0.759  -0.317  -9.663   0.254   2.038
    5   9.872  -9.521  -4.857  -2.949   0.800  -0.250  -8.148   1.373  11.245
    6   9.872  -9.521  -4.857  -2.949   0.800  -0.250  -8.148   1.373  11.245
    7  10.453 -10.002  -4.715  -3.347   0.787  -0.270  -8.475   1.527  11.980
    8  10.453 -10.002  -4.715  -3.347   0.787  -0.270  -8.475   1.527  11.980

 E^0_gap          8.089
 E^GW_gap         9.207
 DeltaE^GW_gap    1.118


 k =    0.500   0.000   0.000
 Band     E0 <VxcLDA>   SigX SigC(E0)      Z dSigC/dE  Sig(E)    E-E0       E
    1  -3.909 -10.709 -16.827   6.549   0.627  -0.596 -10.439   0.270  -3.639
    2  -1.311 -10.127 -14.841   4.969   0.663  -0.509  -9.958   0.169  -1.142
    3   4.424 -10.912 -13.292   2.991   0.780  -0.281 -10.435   0.477   4.901
    4   4.424 -10.912 -13.292   2.991   0.780  -0.281 -10.435   0.477   4.901
    5   6.967 -10.016  -5.752  -2.739   0.798  -0.253  -8.799   1.217   8.184
    6   8.979  -9.619  -4.901  -2.958   0.800  -0.249  -8.210   1.409  10.388
    7   8.979  -9.619  -4.901  -2.958   0.800  -0.249  -8.210   1.409  10.388
    8  13.090  -7.924  -2.379  -3.655   0.795  -0.257  -6.420   1.504  14.594

 E^0_gap          2.543
 E^GW_gap         3.283
 DeltaE^GW_gap    0.740


 k =    0.000   0.000   0.000
 Band     E0 <VxcLDA>   SigX SigC(E0)      Z dSigC/dE  Sig(E)    E-E0       E
    1  -6.232 -10.362 -17.428   7.928   0.616  -0.624  -9.831   0.530  -5.702
    2   5.633 -11.161 -13.117   2.756   0.791  -0.265 -10.529   0.632   6.265
    3   5.633 -11.160 -13.117   2.756   0.791  -0.265 -10.529   0.632   6.264
    4   5.633 -11.160 -13.117   2.756   0.791  -0.265 -10.529   0.632   6.264
    5   8.148  -9.967  -5.517  -2.816   0.794  -0.259  -8.670   1.297   9.446
    6   8.148  -9.967  -5.517  -2.816   0.794  -0.259  -8.670   1.297   9.446
    7   8.148  -9.967  -5.517  -2.816   0.794  -0.259  -8.670   1.297   9.446
    8   8.526 -10.766  -5.897  -3.037   0.793  -0.261  -9.313   1.453   9.979

 E^0_gap          2.516
 E^GW_gap         3.181
 DeltaE^GW_gap    0.666


 New Fermi energy :        2.499716E-01 Ha ,    6.802073E+00 eV
 New Exchange energy :    -2.125813E+00 Ha ,   -5.784631E+01 eV

 === QP Band Gaps ===
  >>>> For spin  1
   Minimum optical gap =   3.1813 [eV], located at k-point      :   0.0000  0.0000  0.0000
   Fundamental gap     =   1.0752 [eV], Top of valence bands at :   0.0000  0.0000  0.0000
                                        Bottom of conduction at :   0.5000  0.5000  0.0000

================================================================================
== DATASET  5 ==================================================================
-   nproc =    1

 mkfilename : getwfk/=0, take file _WFK from output of DATASET   2.

 mkfilename : getscr/=0, take file _SCR from output of DATASET   3.

 Exchange-correlation functional for the present dataset will be:
  LDA: new Teter (4/93) with spin-polarized option - ixc=1
 Citation for XC functional:
  S. Goedecker, M. Teter, J. Huetter, PRB 54, 1703 (1996)

 SIGMA: Calculation of the GW corrections 

 Based on a program developped by R.W. Godby, V. Olevano, G. Onida, and L. Reining.
 Incorporated in ABINIT by V. Olevano, G.-M. Rignanese, and M. Torrent.
.Using double precision arithmetic ; gwpc =  8

 Real(R)+Recip(G) space primitive vectors, cartesian coordinates (Bohr,Bohr^-1):
 R(1)=  6.3285006  0.0000000  3.6537615  G(1)=  0.1580153 -0.0558668  0.0000000
 R(2)=  2.1095002  5.9665675  3.6537615  G(2)=  0.0000000  0.1676005  0.0000000
 R(3)=  0.0000000  0.0000000  7.3075230  G(3)= -0.0790077 -0.0558668  0.1368453
 Unit cell volume ucvol=  2.7592787E+02 bohr^3
 Angles (23,13,12)=  6.00000000E+01  6.00000000E+01  6.00000000E+01 degrees
--------------------------------------------------------------------------------

 ==== K-mesh for the wavefunctions ====
 Number of points in the irreducible wedge :     6
 Reduced coordinates and weights : 

     1)    -2.50000000E-01 -2.50000000E-01  0.00000000E+00       0.18750
     2)    -2.50000000E-01  2.50000000E-01  0.00000000E+00       0.37500
     3)     5.00000000E-01  5.00000000E-01  0.00000000E+00       0.09375
     4)    -2.50000000E-01  5.00000000E-01  2.50000000E-01       0.18750
     5)     5.00000000E-01  0.00000000E+00  0.00000000E+00       0.12500
     6)     0.00000000E+00  0.00000000E+00  0.00000000E+00       0.03125

 Together with 48 symmetry operations and time-reversal symmetry 
 yields    32 points in the full Brillouin Zone.


 ==== Q-mesh for screening function ====
 Number of points in the irreducible wedge :     6
 Reduced coordinates and weights : 

     1)     0.00000000E+00  0.00000000E+00  0.00000000E+00       0.03125
     2)     5.00000000E-01  5.00000000E-01  0.00000000E+00       0.09375
     3)     5.00000000E-01  2.50000000E-01  2.50000000E-01       0.37500
     4)     0.00000000E+00  5.00000000E-01  0.00000000E+00       0.12500
     5)     5.00000000E-01 -2.50000000E-01  2.50000000E-01       0.18750
     6)     0.00000000E+00 -2.50000000E-01 -2.50000000E-01       0.18750

 Together with 48 symmetry operations and time-reversal symmetry 
 yields    32 points in the full Brillouin Zone.


 setmesh: FFT mesh size selected  =  20x 20x 20
          total number of points  =     8000

 Number of electrons calculated from density =    7.9999; Expected =    8.0000
 average of density, n =  0.028993
 r_s =    2.0193
 omega_plasma =   16.4248 [eV]


 === KS Band Gaps ===
  >>>> For spin  1
   Minimum optical gap =   2.5156 [eV], located at k-point      :   0.0000  0.0000  0.0000
   Fundamental gap     =   0.6515 [eV], Top of valence bands at :   0.0000  0.0000  0.0000
                                        Bottom of conduction at :   0.5000  0.5000  0.0000
 SIGMA fundamental parameters:
 PLASMON POLE MODEL  1
 number of plane-waves for SigmaX                  181
 number of plane-waves for SigmaC and W            113
 number of plane-waves for wavefunctions           181
 number of bands                                    20
 number of independent spin polarizations            1
 number of spinorial components                      1
 number of k-points in IBZ                           6
 number of q-points in IBZ                           6
 number of symmetry operations                      48
 number of k-points in BZ                           32
 number of q-points in BZ                           32
 number of frequencies for dSigma/dE                 9
 frequency step for dSigma/dE [eV]                0.25
 number of omega for Sigma on real axis              0
 max omega for Sigma on real axis  [eV]           0.00
 zcut for avoiding poles [eV]                     0.10

 EPSILON^-1 parameters (SCR file):
 dimension of the eps^-1 matrix on file            113
 dimension of the eps^-1 matrix used               113
 number of plane-waves for wavefunctions           181
 number of bands                                    25
 number of q-points in IBZ                           6
 number of frequencies                               2
 number of real frequencies                          1
 number of imag frequencies                          1

 matrix elements of self-energy operator (all in [eV])

 Perturbative Calculation

 k =   -0.250  -0.250   0.000
 Band     E0 <VxcLDA>   SigX SigC(E0)      Z dSigC/dE  Sig(E)    E-E0       E
    1  -5.172 -10.446 -17.067   6.993   0.575  -0.739 -10.232   0.214  -4.958
    2   2.079 -11.021 -14.197   3.055   0.749  -0.335 -11.112  -0.091   1.988
    3   3.737 -10.605 -13.054   2.355   0.766  -0.306 -10.677  -0.072   3.666
    4   3.737 -10.605 -13.054   2.355   0.766  -0.306 -10.677  -0.072   3.666
    5   6.689  -9.350  -5.272  -3.431   0.786  -0.272  -8.842   0.508   7.197
    6   8.667  -9.202  -4.524  -3.926   0.784  -0.275  -8.612   0.590   9.256
    7  11.280 -10.488  -5.231  -4.339   0.758  -0.319  -9.793   0.696  11.976
    8  11.280 -10.488  -5.231  -4.339   0.758  -0.319  -9.793   0.696  11.976

 E^0_gap          2.952
 E^GW_gap         3.532
 DeltaE^GW_gap    0.580


 k =   -0.250   0.250   0.000
 Band     E0 <VxcLDA>   SigX SigC(E0)      Z dSigC/dE  Sig(E)    E-E0       E
    1  -4.214 -10.568 -16.788   6.375   0.657  -0.523 -10.466   0.102  -4.112
    2   0.151 -10.759 -14.884   3.955   0.719  -0.390 -10.881  -0.123   0.029
    3   1.883  -9.983 -12.902   2.772   0.751  -0.331 -10.094  -0.111   1.772
    4   4.296 -10.823 -13.173   2.270   0.768  -0.302 -10.885  -0.062   4.234
    5   7.980  -9.566  -5.057  -3.760   0.783  -0.277  -8.980   0.586   8.566
    6  10.346 -10.045  -4.812  -4.347   0.762  -0.312  -9.369   0.676  11.021
    7  10.658 -10.143  -5.335  -3.982   0.771  -0.297  -9.507   0.637  11.295
    8  11.494  -9.823  -4.359  -4.647   0.758  -0.320  -9.204   0.618  12.113

 E^0_gap          3.683
 E^GW_gap         4.331
 DeltaE^GW_gap    0.648


 k =    0.500   0.500   0.000
 Band     E0 <VxcLDA>   SigX SigC(E0)      Z dSigC/dE  Sig(E)    E-E0       E
    1  -2.143 -10.713 -15.982   5.193   0.685  -0.461 -10.765  -0.052  -2.195
    2  -2.143 -10.713 -15.982   5.193   0.685  -0.461 -10.765  -0.052  -2.195
    3   2.779 -10.481 -13.439   2.767   0.757  -0.321 -10.625  -0.144   2.635
    4   2.779 -10.481 -13.439   2.767   0.757  -0.321 -10.625  -0.144   2.635
    5   6.284  -8.999  -4.978  -3.414   0.791  -0.264  -8.519   0.481   6.765
    6   6.284  -8.999  -4.978  -3.414   0.791  -0.264  -8.519   0.481   6.765
    7  15.388 -10.498  -3.817  -5.814   0.697  -0.434  -9.893   0.605  15.993
    8  15.388 -10.498  -3.817  -5.814   0.697  -0.434  -9.893   0.605  15.993

 E^0_gap          3.505
 E^GW_gap         4.130
 DeltaE^GW_gap    0.625


 k =   -0.250   0.500   0.250
 Band     E0 <VxcLDA>   SigX SigC(E0)      Z dSigC/dE  Sig(E)    E-E0       E
    1  -1.993 -10.828 -16.044   5.126   0.687  -0.456 -10.890  -0.063  -2.056
    2  -1.993 -10.828 -16.044   5.126   0.687  -0.456 -10.890  -0.063  -2.056
    3   1.783  -9.918 -12.919   2.822   0.751  -0.331 -10.053  -0.135   1.648
    4   1.783  -9.918 -12.919   2.822   0.751  -0.331 -10.053  -0.135   1.648
    5   9.872  -9.521  -4.857  -3.913   0.779  -0.284  -8.937   0.585  10.457
    6   9.872  -9.521  -4.857  -3.913   0.779  -0.284  -8.937   0.585  10.457
    7  10.453 -10.002  -4.715  -4.413   0.764  -0.309  -9.334   0.668  11.120
    8  10.453 -10.002  -4.715  -4.413   0.764  -0.309  -9.334   0.668  11.120

 E^0_gap          8.089
 E^GW_gap         8.809
 DeltaE^GW_gap    0.720


 k =    0.500   0.000   0.000
 Band     E0 <VxcLDA>   SigX SigC(E0)      Z dSigC/dE  Sig(E)    E-E0       E
    1  -3.909 -10.709 -16.827   6.172   0.623  -0.605 -10.675   0.034  -3.875
    2  -1.311 -10.127 -14.841   4.555   0.658  -0.519 -10.231  -0.104  -1.415
    3   4.424 -10.912 -13.292   2.293   0.768  -0.301 -10.978  -0.067   4.357
    4   4.424 -10.912 -13.292   2.293   0.768  -0.301 -10.978  -0.067   4.357
    5   6.967 -10.016  -5.752  -3.563   0.782  -0.279  -9.467   0.548   7.515
    6   8.979  -9.619  -4.901  -3.872   0.781  -0.281  -8.959   0.660   9.640
    7   8.979  -9.619  -4.901  -3.872   0.781  -0.281  -8.959   0.660   9.640
    8  13.090  -7.924  -2.379  -4.944   0.762  -0.312  -7.466   0.459  13.549

 E^0_gap          2.543
 E^GW_gap         3.158
 DeltaE^GW_gap    0.615


 k =    0.000   0.000   0.000
 Band     E0 <VxcLDA>   SigX SigC(E0)      Z dSigC/dE  Sig(E)    E-E0       E
    1  -6.232 -10.362 -17.428   7.636   0.613  -0.631 -10.012   0.349  -5.883
    2   5.633 -11.161 -13.117   1.956   0.776  -0.289 -11.162  -0.001   5.632
    3   5.633 -11.160 -13.117   1.956   0.776  -0.289 -11.161  -0.001   5.632
    4   5.633 -11.160 -13.117   1.956   0.776  -0.289 -11.161  -0.001   5.632
    5   8.148  -9.967  -5.517  -3.665   0.777  -0.287  -9.358   0.609   8.758
    6   8.148  -9.967  -5.517  -3.665   0.777  -0.287  -9.358   0.609   8.758
    7   8.148  -9.967  -5.517  -3.665   0.777  -0.287  -9.358   0.609   8.758
    8   8.526 -10.766  -5.897  -4.073   0.772  -0.296 -10.152   0.614   9.140

 E^0_gap          2.516
 E^GW_gap         3.126
 DeltaE^GW_gap    0.611


 New Fermi energy :        2.277896E-01 Ha ,    6.198470E+00 eV
 New Exchange energy :    -2.125813E+00 Ha ,   -5.784631E+01 eV

 === QP Band Gaps ===
  >>>> For spin  1
   Minimum optical gap =   3.1261 [eV], located at k-point      :   0.0000  0.0000  0.0000
   Fundamental gap     =   1.1335 [eV], Top of valence bands at :   0.0000  0.0000  0.0000
                                        Bottom of conduction at :   0.5000  0.5000  0.0000

================================================================================
== DATASET  6 ==================================================================
-   nproc =    1

 mkfilename : getwfk/=0, take file _WFK from output of DATASET   2.

 mkfilename : getscr/=0, take file _SCR from output of DATASET   3.

 Exchange-correlation functional for the present dataset will be:
  LDA: new Teter (4/93) with spin-polarized option - ixc=1
 Citation for XC functional:
  S. Goedecker, M. Teter, J. Huetter, PRB 54, 1703 (1996)

 SIGMA: Calculation of the GW corrections 

 Based on a program developped by R.W. Godby, V. Olevano, G. Onida, and L. Reining.
 Incorporated in ABINIT by V. Olevano, G.-M. Rignanese, and M. Torrent.
.Using double precision arithmetic ; gwpc =  8

 Real(R)+Recip(G) space primitive vectors, cartesian coordinates (Bohr,Bohr^-1):
 R(1)=  6.3285006  0.0000000  3.6537615  G(1)=  0.1580153 -0.0558668  0.0000000
 R(2)=  2.1095002  5.9665675  3.6537615  G(2)=  0.0000000  0.1676005  0.0000000
 R(3)=  0.0000000  0.0000000  7.3075230  G(3)= -0.0790077 -0.0558668  0.1368453
 Unit cell volume ucvol=  2.7592787E+02 bohr^3
 Angles (23,13,12)=  6.00000000E+01  6.00000000E+01  6.00000000E+01 degrees
--------------------------------------------------------------------------------

 ==== K-mesh for the wavefunctions ====
 Number of points in the irreducible wedge :     6
 Reduced coordinates and weights : 

     1)    -2.50000000E-01 -2.50000000E-01  0.00000000E+00       0.18750
     2)    -2.50000000E-01  2.50000000E-01  0.00000000E+00       0.37500
     3)     5.00000000E-01  5.00000000E-01  0.00000000E+00       0.09375
     4)    -2.50000000E-01  5.00000000E-01  2.50000000E-01       0.18750
     5)     5.00000000E-01  0.00000000E+00  0.00000000E+00       0.12500
     6)     0.00000000E+00  0.00000000E+00  0.00000000E+00       0.03125

 Together with 48 symmetry operations and time-reversal symmetry 
 yields    32 points in the full Brillouin Zone.


 ==== Q-mesh for screening function ====
 Number of points in the irreducible wedge :     6
 Reduced coordinates and weights : 

     1)     0.00000000E+00  0.00000000E+00  0.00000000E+00       0.03125
     2)     5.00000000E-01  5.00000000E-01  0.00000000E+00       0.09375
     3)     5.00000000E-01  2.50000000E-01  2.50000000E-01       0.37500
     4)     0.00000000E+00  5.00000000E-01  0.00000000E+00       0.12500
     5)     5.00000000E-01 -2.50000000E-01  2.50000000E-01       0.18750
     6)     0.00000000E+00 -2.50000000E-01 -2.50000000E-01       0.18750

 Together with 48 symmetry operations and time-reversal symmetry 
 yields    32 points in the full Brillouin Zone.


 setmesh: FFT mesh size selected  =  20x 20x 20
          total number of points  =     8000

 Number of electrons calculated from density =    7.9999; Expected =    8.0000
 average of density, n =  0.028993
 r_s =    2.0193
 omega_plasma =   16.4248 [eV]


 === KS Band Gaps ===
  >>>> For spin  1
   Minimum optical gap =   2.5156 [eV], located at k-point      :   0.0000  0.0000  0.0000
   Fundamental gap     =   0.6515 [eV], Top of valence bands at :   0.0000  0.0000  0.0000
                                        Bottom of conduction at :   0.5000  0.5000  0.0000
 SIGMA fundamental parameters:
 PLASMON POLE MODEL  1
 number of plane-waves for SigmaX                  181
 number of plane-waves for SigmaC and W            113
 number of plane-waves for wavefunctions           181
 number of bands                                    30
 number of independent spin polarizations            1
 number of spinorial components                      1
 number of k-points in IBZ                           6
 number of q-points in IBZ                           6
 number of symmetry operations                      48
 number of k-points in BZ                           32
 number of q-points in BZ                           32
 number of frequencies for dSigma/dE                 9
 frequency step for dSigma/dE [eV]                0.25
 number of omega for Sigma on real axis              0
 max omega for Sigma on real axis  [eV]           0.00
 zcut for avoiding poles [eV]                     0.10

 EPSILON^-1 parameters (SCR file):
 dimension of the eps^-1 matrix on file            113
 dimension of the eps^-1 matrix used               113
 number of plane-waves for wavefunctions           181
 number of bands                                    25
 number of q-points in IBZ                           6
 number of frequencies                               2
 number of real frequencies                          1
 number of imag frequencies                          1

 matrix elements of self-energy operator (all in [eV])

 Perturbative Calculation

 k =   -0.250  -0.250   0.000
 Band     E0 <VxcLDA>   SigX SigC(E0)      Z dSigC/dE  Sig(E)    E-E0       E
    1  -5.172 -10.446 -17.067   6.896   0.574  -0.741 -10.288   0.158  -5.014
    2   2.079 -11.021 -14.197   2.863   0.747  -0.339 -11.254  -0.234   1.845
    3   3.737 -10.605 -13.054   2.154   0.763  -0.310 -10.830  -0.225   3.513
    4   3.737 -10.605 -13.054   2.154   0.763  -0.310 -10.830  -0.225   3.513
    5   6.689  -9.350  -5.272  -3.649   0.783  -0.277  -9.014   0.335   7.024
    6   8.667  -9.202  -4.524  -4.169   0.781  -0.281  -8.805   0.397   9.064
    7  11.280 -10.488  -5.231  -4.671   0.753  -0.328 -10.047   0.441  11.721
    8  11.280 -10.488  -5.231  -4.671   0.753  -0.328 -10.047   0.441  11.721

 E^0_gap          2.952
 E^GW_gap         3.512
 DeltaE^GW_gap    0.560


 k =   -0.250   0.250   0.000
 Band     E0 <VxcLDA>   SigX SigC(E0)      Z dSigC/dE  Sig(E)    E-E0       E
    1  -4.214 -10.568 -16.788   6.266   0.656  -0.525 -10.538   0.030  -4.184
    2   0.151 -10.759 -14.884   3.795   0.718  -0.393 -10.995  -0.237  -0.086
    3   1.883  -9.983 -12.902   2.616   0.750  -0.334 -10.210  -0.228   1.656
    4   4.296 -10.823 -13.173   2.057   0.766  -0.306 -11.048  -0.224   4.072
    5   7.980  -9.566  -5.057  -4.002   0.779  -0.283  -9.171   0.395   8.375
    6  10.346 -10.045  -4.812  -4.653   0.758  -0.319  -9.606   0.439  10.785
    7  10.658 -10.143  -5.335  -4.298   0.766  -0.305  -9.752   0.391  11.050
    8  11.494  -9.823  -4.359  -4.972   0.753  -0.328  -9.453   0.370  11.864

 E^0_gap          3.683
 E^GW_gap         4.303
 DeltaE^GW_gap    0.619


 k =    0.500   0.500   0.000
 Band     E0 <VxcLDA>   SigX SigC(E0)      Z dSigC/dE  Sig(E)    E-E0       E
    1  -2.143 -10.713 -15.982   5.060   0.683  -0.463 -10.856  -0.143  -2.286
    2  -2.143 -10.713 -15.982   5.060   0.683  -0.463 -10.856  -0.143  -2.286
    3   2.779 -10.481 -13.439   2.586   0.755  -0.325 -10.762  -0.281   2.498
    4   2.779 -10.481 -13.439   2.586   0.755  -0.325 -10.762  -0.281   2.498
    5   6.284  -8.999  -4.978  -3.610   0.788  -0.269  -8.675   0.325   6.609
    6   6.284  -8.999  -4.978  -3.610   0.788  -0.269  -8.675   0.325   6.609
    7  15.388 -10.498  -3.817  -6.258   0.691  -0.446 -10.205   0.292  15.681
    8  15.388 -10.498  -3.817  -6.258   0.691  -0.446 -10.205   0.292  15.681

 E^0_gap          3.505
 E^GW_gap         4.111
 DeltaE^GW_gap    0.605


 k =   -0.250   0.500   0.250
 Band     E0 <VxcLDA>   SigX SigC(E0)      Z dSigC/dE  Sig(E)    E-E0       E
    1  -1.993 -10.828 -16.044   4.987   0.685  -0.459 -10.985  -0.157  -2.151
    2  -1.993 -10.828 -16.044   4.987   0.685  -0.459 -10.985  -0.157  -2.151
    3   1.783  -9.918 -12.919   2.671   0.749  -0.334 -10.165  -0.248   1.536
    4   1.783  -9.918 -12.919   2.671   0.749  -0.334 -10.165  -0.248   1.536
    5   9.872  -9.521  -4.857  -4.191   0.775  -0.291  -9.155   0.367  10.239
    6   9.872  -9.521  -4.857  -4.191   0.775  -0.291  -9.155   0.367  10.239
    7  10.453 -10.002  -4.715  -4.719   0.760  -0.316  -9.571   0.431  10.884
    8  10.453 -10.002  -4.715  -4.719   0.760  -0.316  -9.571   0.431  10.884

 E^0_gap          8.089
 E^GW_gap         8.703
 DeltaE^GW_gap    0.614


 k =    0.500   0.000   0.000
 Band     E0 <VxcLDA>   SigX SigC(E0)      Z dSigC/dE  Sig(E)    E-E0       E
    1  -3.909 -10.709 -16.827   6.056   0.622  -0.607 -10.748  -0.039  -3.947
    2  -1.311 -10.127 -14.841   4.431   0.657  -0.521 -10.313  -0.185  -1.497
    3   4.424 -10.912 -13.292   2.076   0.766  -0.306 -11.145  -0.233   4.191
    4   4.424 -10.912 -13.292   2.076   0.766  -0.306 -11.145  -0.233   4.191
    5   6.967 -10.016  -5.752  -3.806   0.778  -0.285  -9.659   0.356   7.323
    6   8.979  -9.619  -4.901  -4.132   0.777  -0.287  -9.164   0.455   9.434
    7   8.979  -9.619  -4.901  -4.132   0.777  -0.287  -9.164   0.455   9.434
    8  13.090  -7.924  -2.379  -5.250   0.757  -0.321  -7.701   0.224  13.314

 E^0_gap          2.543
 E^GW_gap         3.132
 DeltaE^GW_gap    0.589


 k =    0.000   0.000   0.000
 Band     E0 <VxcLDA>   SigX SigC(E0)      Z dSigC/dE  Sig(E)    E-E0       E
    1  -6.232 -10.362 -17.428   7.549   0.613  -0.633 -10.066   0.296  -5.937
    2   5.633 -11.161 -13.117   1.711   0.773  -0.294 -11.351  -0.190   5.443
    3   5.633 -11.160 -13.117   1.711   0.773  -0.294 -11.351  -0.190   5.442
    4   5.633 -11.160 -13.117   1.711   0.773  -0.294 -11.351  -0.190   5.442
    5   8.148  -9.967  -5.517  -3.927   0.773  -0.294  -9.563   0.405   8.553
    6   8.148  -9.967  -5.517  -3.927   0.773  -0.294  -9.563   0.405   8.553
    7   8.148  -9.967  -5.517  -3.927   0.773  -0.294  -9.563   0.405   8.553
    8   8.526 -10.766  -5.897  -4.378   0.768  -0.303 -10.389   0.377   8.903

 E^0_gap          2.516
 E^GW_gap         3.110
 DeltaE^GW_gap    0.595


 New Fermi energy :        2.214446E-01 Ha ,    6.025814E+00 eV
 New Exchange energy :    -2.125813E+00 Ha ,   -5.784631E+01 eV

 === QP Band Gaps ===
  >>>> For spin  1
   Minimum optical gap =   3.1105 [eV], located at k-point      :   0.0000  0.0000  0.0000
   Fundamental gap     =   1.1665 [eV], Top of valence bands at :   0.0000  0.0000  0.0000
                                        Bottom of conduction at :   0.5000  0.5000  0.0000

== END DATASET(S) ==============================================================
================================================================================
  
 -outvars: echo values of variables after computation  --------
            acell      1.0000000000E+00  1.0000000000E+00  1.0000000000E+00 Bohr
              amu      2.80855000E+01
             bdgw4          1       8       1       8       1       8       1       8
                            1       8       1       8
             bdgw5          1       8       1       8       1       8       1       8
                            1       8       1       8
             bdgw6          1       8       1       8       1       8       1       8
                            1       8       1       8
             ecut1     6.00000000E+00 Hartree
             ecut2     6.00000000E+00 Hartree
[...]
                       2.1095001840E+00  1.4916418850E+00  3.6537614973E+00
             xred      0.0000000000E+00  0.0000000000E+00  0.0000000000E+00
                       2.5000000000E-01  2.5000000000E-01  2.5000000000E-01
            znucl       14.00000

================================================================================

 Test the timer : 
  a combined call timab(*,1,tsec) + timab(*,2,tsec) is 
- CPU time =    1.1623E-06 sec,    Wall time =    1.1639E-06 sec

- Total cpu        time (s,m,h):        106.7        1.78      0.030
- Total wall clock time (s,m,h):        110.0        1.83      0.031
-
- For major independent code sections, cpu and wall times (sec),
-  as well as % of the time and number of calls for node 0-
-<BEGIN_TIMER mpi_nprocs = 1, omp_nthreads = 1, mpi_rank = 0>
- cpu_time =          106.7, wall_time =          110.0
-
- routine                        cpu     %       wall     %      number of calls  Gflops 
-                                                                  (-1=no count)
- sigma/=fourdp                100.357  94.1    103.643  94.2              3      -1.00    
- invars2                        0.815   0.8      0.819   0.7              6      -1.00    
- fourwf%(pot)                   0.760   0.7      0.764   0.7           4810      -1.00    
- pspini                         0.637   0.6      0.644   0.6              6      -1.00    
- projbd                         0.630   0.6      0.459   0.4           6778      -1.00    
- abinit(2)                      0.193   0.2      0.207   0.2              1      -1.00    
- timing timab                   0.151   0.1      0.151   0.1             13      -1.00    
- nonlop(apply)                  0.106   0.1      0.109   0.1           4810      -1.00    
- vtowfk(ssdiag)                 0.083   0.1      0.080   0.1             -1      -1.00    
- getghc-other                   0.030   0.0      0.027   0.0             -1      -1.00    
- newkpt(excl. rwwf   )          0.010   0.0      0.012   0.0             -1      -1.00    
- xc:pot/=fourdp                 0.008   0.0      0.010   0.0             14      -1.00    
- mkcore                         0.007   0.0      0.007   0.0              8      -1.00    
- fourdp                         0.005   0.0      0.007   0.0             49      -1.00    
- setsym                         0.005   0.0      0.005   0.0              2      -1.00    
- ewald                          0.004   0.0      0.005   0.0              6      -1.00    
- fourwf%(den)                   0.004   0.0      0.004   0.0             40      -1.00    
- symrhg(no FFT)                 0.003   0.0      0.003   0.0              9      -1.00    
- stress                         0.002   0.0      0.002   0.0              1      -1.00    
- forces                         0.002   0.0      0.002   0.0              1      -1.00    
- kpgsph                         0.002   0.0      0.002   0.0            175      -1.00    
- vtowfk(contrib)                0.001   0.0      0.001   0.0             16      -1.00    
- ewald2 (+vdw_dftd)             0.000   0.0      0.000   0.0              1      -1.00    
- nonlop(forstr)                 0.000   0.0      0.000   0.0              8      -1.00    
- scfcv-scprqt                   0.000   0.0      0.000   0.0              5      -1.00    
- status                         0.000   0.0      0.000   0.0              1      -1.00    
- vtowfk  (1)                    0.000   0.0      0.000   0.0             16      -1.00    
- inwffil(excl. calls)           0.000   0.0      0.000   0.0              2      -1.00    
- dfpt_vtowfk(contrib)           0.000   0.0      0.000   0.0             -1      -1.00    
- dfpt_cgwf-O(npw)               0.000   0.0      0.000   0.0             -1      -1.00    
- others (82)                    0.000   0.0      0.000   0.0             -1      -1.00    
-<END_TIMER>
-
- subtotal                     103.815  97.3    106.965  97.3

- For major independent code sections, cpu and wall times (sec),
- as well as % of the total time and number of calls 

-<BEGIN_TIMER mpi_nprocs = 1, omp_nthreads = 1, mpi_rank = world>
- cpu_time =         106.7, wall_time =         110.0
-
- routine                         cpu     %       wall     %      number of calls Gflops 
-                                                                  (-1=no count)
- sigma/=fourdp                100.357  94.1    103.643  94.2              3      -1.00    
- invars2                        0.815   0.8      0.819   0.7              6      -1.00    
- fourwf%(pot)                   0.760   0.7      0.764   0.7           4810      -1.00    
- pspini                         0.637   0.6      0.644   0.6              6      -1.00    
- projbd                         0.630   0.6      0.459   0.4           6778      -1.00    
- abinit(2)                      0.193   0.2      0.207   0.2              1      -1.00    
- timing timab                   0.151   0.1      0.151   0.1             13      -1.00    
- nonlop(apply)                  0.106   0.1      0.109   0.1           4810      -1.00    
- vtowfk(ssdiag)                 0.083   0.1      0.080   0.1             -1      -1.00    
- getghc-other                   0.030   0.0      0.027   0.0             -1      -1.00    
- newkpt(excl. rwwf   )          0.010   0.0      0.012   0.0             -1      -1.00    
- xc:pot/=fourdp                 0.008   0.0      0.010   0.0             14      -1.00    
- mkcore                         0.007   0.0      0.007   0.0              8      -1.00    
- fourdp                         0.005   0.0      0.007   0.0             49      -1.00    
- setsym                         0.005   0.0      0.005   0.0              2      -1.00    
- ewald                          0.004   0.0      0.005   0.0              6      -1.00    
- fourwf%(den)                   0.004   0.0      0.004   0.0             40      -1.00    
- symrhg(no FFT)                 0.003   0.0      0.003   0.0              9      -1.00    
- stress                         0.002   0.0      0.002   0.0              1      -1.00    
- forces                         0.002   0.0      0.002   0.0              1      -1.00    
- kpgsph                         0.002   0.0      0.002   0.0            175      -1.00    
- vtowfk(contrib)                0.001   0.0      0.001   0.0             16      -1.00    
- ewald2 (+vdw_dftd)             0.000   0.0      0.000   0.0              1      -1.00    
- nonlop(forstr)                 0.000   0.0      0.000   0.0              8      -1.00    
- scfcv-scprqt                   0.000   0.0      0.000   0.0              5      -1.00    
- status                         0.000   0.0      0.000   0.0              1      -1.00    
- vtowfk  (1)                    0.000   0.0      0.000   0.0             16      -1.00    
- inwffil(excl. calls)           0.000   0.0      0.000   0.0              2      -1.00    
- dfpt_vtowfk(contrib)           0.000   0.0      0.000   0.0             -1      -1.00    
- dfpt_cgwf-O(npw)               0.000   0.0      0.000   0.0             -1      -1.00    
- others (82)                    0.000   0.0      0.000   0.0             -1      -1.00    
-<END_TIMER>

- subtotal                     103.815  97.3    106.965  97.3

 Partitioning of abinit
- abinit                       106.681 100.0    109.967 100.0              1
 
- abinit(1)                      0.043   0.0      0.054   0.0              1
- abinit(2)                      0.193   0.2      0.207   0.2              1
- indefo+macroin+invars2m        0.819   0.8      0.827   0.8              1
- abinit(4)                      0.151   0.1      0.163   0.1              1
- abinit(5)                      0.023   0.0      0.027   0.0              1
- driver                       105.204  98.6    108.440  98.6              1
- abinit(6)                      0.095   0.1      0.095   0.1              1
- timing timab                   0.151   0.1      0.151   0.1             13

- subtotal                     106.681 100.0    109.967 100.0

 Partitioning of driver
- driver                       105.204  98.6    108.440  98.6              1
 
- gstateimg                      2.111   2.0      1.996   1.8              2
- screening                      2.732   2.6      2.790   2.5              1
- sigma                        100.357  94.1    103.643  94.2              3

- subtotal                     105.204  98.6    108.440  98.6

 Partitioning of gstateimg+gstate
- gstateimg                      2.111   2.0      1.996   1.8              2
 
- gstate->kpgsph                 0.017   0.0      0.027   0.0              4
- gstate(pspini)                 0.325   0.3      0.333   0.3              2
- gstate(...scfcv)               1.749   1.6      1.599   1.5              2
- gstate  (3)                    0.016   0.0      0.029   0.0              2

- subtotal                       2.111   2.0      1.996   1.8

 Partitioning of scfcv
- scfcv                          1.749   1.6      1.598   1.5              2
 
- scfcv(vtorho(f))               1.714   1.6      1.547   1.4              6

- subtotal                       1.749   1.6      1.598   1.5

 Partitioning of rhotov
- rhotov                         0.003   0.0      0.003   0.0              5
 

- subtotal                       0.003   0.0      0.003   0.0

 Partitioning of vtorho
- vtorho                         1.714   1.6      1.547   1.4              6
 
- vtowfk                         1.708   1.6      1.536   1.4             16

- subtotal                       1.714   1.6      1.547   1.4

 Partitioning of vtowfk
- vtowfk                         1.708   1.6      1.536   1.4             16
 
- cgwf                           1.620   1.5      1.451   1.3             53
- vtowfk(subdiago)               0.030   0.0      0.027   0.0             53
- vtowfk(pw_orthon)              0.050   0.0      0.050   0.0             53

- subtotal                       1.708   1.6      1.536   1.4

 Partitioning of cgwf
- cgwf                           1.620   1.5      1.451   1.3             53
 
- getghc%cgwf                    0.897   0.8      0.901   0.8           4810
- cgwf-O(npw)                    0.094   0.1      0.091   0.1             -1
- projbd%cgwf                    0.630   0.6      0.459   0.4           6778

- subtotal                       1.620   1.5      1.451   1.3

 Partitioning of getghc
- getghc                         0.897   0.8      0.901   0.8           4810
 
- fourwf%getghc                  0.760   0.7      0.764   0.7           4810
- nonlop%getghc                  0.106   0.1      0.109   0.1           4810
- getghc-other                   0.030   0.0      0.027   0.0             -1

- subtotal                       0.897   0.8      0.901   0.8

 Partitioning of fourwf (upwards partitioning)
- fourwf                         0.764   0.7      0.768   0.7           4850
 
- fourwf%getghc                  0.760   0.7      0.764   0.7           4810

- subtotal                       0.764   0.7      0.768   0.7

 Partitioning of screening
- screening                      2.732   2.6      2.790   2.5              1
 
- screening(init1)               0.594   0.6      0.607   0.6              1
- screening(wfs)                 0.047   0.0      0.051   0.0              1
- screening(1)                   0.034   0.0      0.034   0.0              1
- screening(density)             0.034   0.0      0.038   0.0              1
- screening(cchi0q0)             0.294   0.3      0.306   0.3              1
- screening(cchi0)               1.655   1.6      1.657   1.5              5
- screening(q-loop,end)          0.042   0.0      0.041   0.0              6

- subtotal                       2.711   2.5      2.744   2.5

 Partitioning of sigma
- sigma                        100.357  94.1    103.643  94.2              3
 
- sigma(Init1)                   0.112   0.1      0.116   0.1              6
- setup_sigma                    0.847   0.8      0.852   0.8              3
- sigma(make_vhxc)               0.095   0.1      0.096   0.1              3
- sigma(vHxc_me)                 0.026   0.0      0.027   0.0              3
- sigma(getW)                    0.027   0.0      0.041   0.0              3
- sigma(calc_sigx_me)            1.924   1.8      1.927   1.8              3
- sigma(calc_sigc_me)           97.262  91.2    100.494  91.4             18
- sigma(solve_dyson)             0.016   0.0      0.024   0.0              3

- subtotal                     100.330  94.0    103.608  94.2

 Partitioning of calc_sigc_me
- calc_sigc_me                  97.262  91.2    100.494  91.4             18
 
- calc_sigc_me(Init)             0.696   0.7      0.720   0.7             18
- calc_sigc_me(Init q)           0.033   0.0      0.036   0.0            192
- calc_sigc_me(loop)            96.524  90.5     99.730  90.7            192

- subtotal                      97.257  91.2    100.489  91.4

 Partitioning of inwffil
- inwffil                        0.010   0.0      0.013   0.0              2
 

- subtotal                       0.010   0.0      0.013   0.0

 Partitioning of newkpt
- newkpt                         0.010   0.0      0.012   0.0              2
 

- subtotal                       0.010   0.0      0.012   0.0

 Partitioning of newvtr
- newvtr                         0.003   0.0      0.004   0.0              4
 

- subtotal                       0.003   0.0      0.004   0.0

 Partitioning of  fourdp (upwards partitioning)
- fourdp                         0.005   0.0      0.007   0.0             49
 

- subtotal                       0.005   0.0      0.007   0.0

 Partitioning of afterscfloop
- afterscfloop                   0.005   0.0      0.005   0.0              2
 

- subtotal                       0.005   0.0      0.005   0.0

 Partitioning of forstr
- forstr                         0.005   0.0      0.005   0.0              1
 

- subtotal                       0.005   0.0      0.005   0.0

 Partitioning of forstrnps
- forstrnps                      0.001   0.0      0.001   0.0              1
 

- subtotal                       0.001   0.0      0.001   0.0

 Partitioning of outscfcv
- outscfcv                       0.016   0.0      0.020   0.0              2
 

- subtotal                       0.015   0.0      0.018   0.0
-
-Synchronisation (=leave_test) and MPI calls 
- communic.MPI                   0.019   0.0      0.019   0.0          31902
-
- forstrnps:synchr               0.000   0.0      0.000   0.0              2
-
- subtotal                       0.000   0.0      0.000   0.0

 Additional information
- timana(1)                      0.000   0.0      0.001   0.0              1
- total timab                    0.295   0.3      0.295   0.3         253793
- fourwf                         0.764   0.7      0.768   0.7           4850
- mklocl(2)                      0.000   0.0      0.000   0.0              1
- status                         0.000   0.0      0.000   0.0              1
- nonlop(forstr)                 0.000   0.0      0.000   0.0              8
- nonlop(total)                  0.106   0.1      0.110   0.1           4818
- calc_sigc_me(1)                0.133   0.1      0.139   0.1           3840
- calc_sigc_me(rho_tw_g)         5.949   5.6      6.181   5.6           3840
- calc_sigc_me(2)               90.169  84.5     93.212  84.8          30720
- calc_sigc_me(sigma_me)         0.137   0.1      0.144   0.1          30720
- cchi0                          1.655   1.6      1.656   1.5              5

 timana : in multi dataset mode, the more detailed analysis is not done.

================================================================================

 Suggested references for the acknowledgment of ABINIT usage.

 The users of ABINIT have little formal obligations with respect to the ABINIT group
 (those specified in the GNU General Public License, http://www.gnu.org/copyleft/gpl.txt).
 However, it is common practice in the scientific literature,
 to acknowledge the efforts of people that have made the research possible.
 In this spirit, please find below suggested citations of work written by ABINIT developers,
 corresponding to implementations inside of ABINIT that you have used in the present run.
 Note also that it will be of great value to readers of publications presenting these results,
 to read papers enabling them to understand the theoretical formalism and details
 of the ABINIT implementation.
 For information on why they are suggested, see also http://www.abinit.org/about/?text=acknowledgments.
-
- [1] Recent developments in the ABINIT software package
- X.Gonze, F.Jollet, F.Abreu Araujo, D.Adams, B.Amadon, T.Applencourt,
- C.Audouze, J.-M.Beuken, J.Bieder, A.Bokhanchuk, E.Bousquet, F.Bruneval
- D.Caliste, M.Cote, F.Dahm, F.Da Pieve, M.Delaveau, M.Di Gennaro,
- B.Dorado, C.Espejo, G.Geneste, L.Genovese, A.Gerossier, M.Giantomassi,
- Y.Gillet, D.R.Hamann, L.He, G.Jomard, J.Laflamme Janssen, S.Le Roux,
- A.Levitt, A.Lherbier, F.Liu, I.Lukacevic, A.Martin, C.Martins,
- M.J.T.Oliveira, S.Ponce, Y.Pouillon, T.Rangel, G.-M.Rignanese,
- A.H.Romero, B.Rousseau, O.Rubel, A.A.Shukri, M.Stankovski, M.Torrent,
- Comment : the fourth generic paper describing the ABINIT project.
- Note that a version of this paper, that is not formatted for Computer Phys. Comm. 
- is available at http://www.abinit.org/about/ABINIT16.pdf .
- The licence allows the authors to put it on the Web.
-
- [2] ABINIT : First-principles approach of materials and nanosystem properties.
- X. Gonze, B. Amadon, P.-M. Anglade, J.-M. Beuken, F. Bottin, P. Boulanger, F. Bruneval,
- D. Caliste, R. Caracas, M. Cote, T. Deutsch, L. Genovese, Ph. Ghosez, M. Giantomassi
- S. Goedecker, D.R. Hamann, P. Hermet, F. Jollet, G. Jomard, S. Leroux, M. Mancini, S. Mazevet,
- M.J.T. Oliveira, G. Onida, Y. Pouillon, T. Rangel, G.-M. Rignanese, D. Sangalli, R. Shaltaf,
- M. Torrent, M.J. Verstraete, G. Zerah, J.W. Zwanziger
- Computer Phys. Comm. 180, 2582-2615 (2009).
- Comment : the third generic paper describing the ABINIT project.
- Note that a version of this paper, that is not formatted for Computer Phys. Comm. 
- is available at http://www.abinit.org/about/ABINIT_CPC_v10.pdf .
- The licence allows the authors to put it on the Web.
-
- [3] A brief introduction to the ABINIT software package.
- X. Gonze, G.-M. Rignanese, M. Verstraete, J.-M. Beuken, Y. Pouillon, R. Caracas, F. Jollet,
- M. Torrent, G. Zerah, M. Mikami, Ph. Ghosez, M. Veithen, J.-Y. Raty, V. Olevano, F. Bruneval,
- L. Reining, R. Godby, G. Onida, D.R. Hamann, and D.C. Allan.
- Z. Kristallogr. 220, 558-562 (2005).
- Comment : the second generic paper describing the ABINIT project. Note that this paper
- should be cited especially if you are using the GW part of ABINIT, as several authors
- of this part are not in the list of authors of the first or third paper.
- The .pdf of the latter paper is available at http://www.abinit.org/about/zfk_0505-06_558-562.pdf.
- Note that it should not redistributed (Copyright by Oldenburg Wissenshaftverlag,
- the licence allows the authors to put it on the Web).
-
- And optionally:
-
- [4] First-principles computation of material properties : the ABINIT software project. 
- X. Gonze, J.-M. Beuken, R. Caracas, F. Detraux, M. Fuchs, G.-M. Rignanese, L. Sindic,
- M. Verstraete, G. Zerah, F. Jollet, M. Torrent, A. Roy, M. Mikami, Ph. Ghosez, J.-Y. Raty, D.C. Allan.
- Computational Materials Science 25, 478-492 (2002). http://dx.doi.org/10.1016/S0927-0256(02)00325-7
- Comment : the original paper describing the ABINIT project.
-
- Proc.   0 individual time (sec): cpu=        106.7  wall=        110.0

================================================================================

 Calculation completed.
.Delivered  20 WARNINGs and  15 COMMENTs to log file.
+Overall time at end (sec) : cpu=        106.7  wall=        110.0
