Al    ONCVPSP  r_core=  1.77  1.77  1.71
13.0000      3.0000      150121    zatom,zion,pspd
8      11   2     4   600     0    pspcod,pspxc,lmax,lloc,mmax,r2well
5.99000000  0.65000000  0.00000000    rchrg fchrg qchrg
2     2     2     0     0    nproj
0                 extension_switch
0                         5.1894548591501D+00  7.4153096579901D-01
1  0.0000000000000D+00  0.0000000000000D+00 -0.0000000000000D+00
2  1.0000000000000D-02  1.9650363538008D-02 -2.6140153901260D-03
3  2.0000000000000D-02  3.9212583160182D-02 -5.0285999835552D-03
4  3.0000000000000D-02  5.8600086323697D-02 -7.0477887435442D-03
5  4.0000000000000D-02  7.7729419473689D-02 -8.4824964570550D-03
6  5.0000000000000D-02  9.6521748480561D-02 -9.1538291413347D-03
7  6.0000000000000D-02  1.1490428914921D-01 -8.8962432856245D-03
8  7.0000000000000D-02  1.3281164605314D-01 -7.5605055999761D-03
9  8.0000000000000D-02  1.5018703923542D-01 -5.0164087424940D-03
10  9.0000000000000D-02  1.6698339994245D-01 -1.1552020240999D-03
11  1.0000000000000D-01  1.8316431839309D-01  4.1082999211741D-03
12  1.1000000000000D-01  1.9870482871774D-01  1.0833962882126D-02
13  1.2000000000000D-01  2.1359201853435D-01  1.9054960546642D-02
14  1.3000000000000D-01  2.2782545313048D-01  2.8776805587245D-02
15  1.4000000000000D-01  2.4141740678292D-01  3.9976800680469D-02
16  1.5000000000000D-01  2.5439289678914D-01  5.2603919143802D-02
17  1.6000000000000D-01  2.6678951818623D-01  6.6579119716528D-02
18  1.7000000000000D-01  2.7865708045333D-01  8.1796092712548D-02
19  1.8000000000000D-01  2.9005705003990D-01  9.8122429352798D-02
20  1.9000000000000D-01  3.0106180529594D-01  1.1540120001680D-01
21  2.0000000000000D-01  3.1175371439781D-01  1.3345291861117D-01
22  2.1000000000000D-01  3.2222404544552D-01  1.5207787299895D-01
23  2.2000000000000D-01  3.3257172753541D-01  1.7105878104706D-01
24  2.3000000000000D-01  3.4290197552730D-01  1.9016374447999D-01
25  2.4000000000000D-01  3.5332480207113D-01  2.0914944967194D-01
26  2.5000000000000D-01  3.6395342539383D-01  2.2776459663082D-01
27  2.6000000000000D-01  3.7490262149486D-01  2.4575345136556D-01
28  2.7000000000000D-01  3.8628700177411D-01  2.6285956178896D-01
29  2.8000000000000D-01  3.9821928718559D-01  2.7882948406518D-01
30  2.9000000000000D-01  4.1080856783767D-01  2.9341654264436D-01
31  3.0000000000000D-01  4.2415858820071D-01  3.0638453724464D-01
32  3.1000000000000D-01  4.3836607999749D-01  3.1751134884722D-01
33  3.2000000000000D-01  4.5351917743790D-01  3.2659236963108D-01
34  3.3000000000000D-01  4.6969589084366D-01  3.3344380833966D-01
35  3.4000000000000D-01  4.8696274847516D-01  3.3790563383055D-01
36  3.5000000000000D-01  5.0537353887681D-01  3.3984430266358D-01
37  3.6000000000000D-01  5.2496821805825D-01  3.3915513178515D-01
38  3.7000000000000D-01  5.4577198041818D-01  3.3576431851370D-01
39  3.8000000000000D-01  5.6779455419796D-01  3.2963047622040D-01
40  3.9000000000000D-01  5.9102963666192D-01  3.2074586920358D-01
41  4.0000000000000D-01  6.1545457035676D-01  3.0913712745150D-01
42  4.1000000000000D-01  6.4103024202771D-01  2.9486548100957D-01
43  4.2000000000000D-01  6.6770117760215D-01  2.7802657166227D-01
44  4.3000000000000D-01  6.9539586194555D-01  2.5874977976889D-01
45  4.4000000000000D-01  7.2402727380907D-01  2.3719708704062D-01
46  4.5000000000000D-01  7.5349363033567D-01  2.1356148750987D-01
47  4.6000000000000D-01  7.8367933261407D-01  1.8806496518063D-01
48  4.7000000000000D-01  8.1445609855144D-01  1.6095606796914D-01
49  4.8000000000000D-01  8.4568426457874D-01  1.3250711834683D-01
50  4.9000000000000D-01  8.7721427346963D-01  1.0301102427789D-01
51  5.0000000000000D-01  9.0888827851496D-01  7.2777838695943D-02
52  5.1000000000000D-01  9.4054182941057D-01  4.2131144235313D-02
53  5.2000000000000D-01  9.7200576364175D-01  1.1403999253170D-02
54  5.3000000000000D-01  1.0031081154872D+00 -1.9065154560570D-02
55  5.4000000000000D-01  1.0336758578662D+00 -4.8936225463580D-02
56  5.5000000000000D-01  1.0635372856296D+00 -7.7872572979362D-02
57  5.6000000000000D-01  1.0925234596223D+00 -1.0554410013034D-01
58  5.7000000000000D-01  1.1204706666641D+00 -1.3163251202326D-01
59  5.8000000000000D-01  1.1472217489999D+00 -1.5583415457565D-01
60  5.9000000000000D-01  1.1726285536657D+00 -1.7786524023960D-01
61  6.0000000000000D-01  1.1965527429781D+00 -1.9746356761698D-01
62  6.1000000000000D-01  1.2188684358447D+00 -2.1439414245786D-01
63  6.2000000000000D-01  1.2394626239357D+00 -2.2845004237763D-01
64  6.3000000000000D-01  1.2582368898018D+00 -2.3945605137023D-01
65  6.4000000000000D-01  1.2751086257147D+00 -2.4727121812131D-01
66  6.5000000000000D-01  1.2900113196543D+00 -2.5178942073310D-01
67  6.6000000000000D-01  1.3028955546313D+00 -2.5294143830028D-01
68  6.7000000000000D-01  1.3137296067709D+00 -2.5069615358312D-01
69  6.8000000000000D-01  1.3224991748810D+00 -2.4505990482518D-01
70  6.9000000000000D-01  1.3292073942081D+00 -2.3607643068992D-01
71  7.0000000000000D-01  1.3338748232563D+00 -2.2382673638369D-01
72  7.1000000000000D-01  1.3365388226979D+00 -2.0842766213230D-01
73  7.2000000000000D-01  1.3372526422407D+00 -1.9002982964464D-01
74  7.3000000000000D-01  1.3360845581198D+00 -1.6881567707167D-01
75  7.4000000000000D-01  1.3331167175009D+00 -1.4499686477867D-01
76  7.5000000000000D-01  1.3284437769850D+00 -1.1881124747423D-01
77  7.6000000000000D-01  1.3221714797680D+00 -9.0519664615288D-02
78  7.7000000000000D-01  1.3144148637694D+00 -6.0402001422569D-02
79  7.8000000000000D-01  1.3052965221294D+00 -2.8753324417154D-02
80  7.9000000000000D-01  1.2949447239169D+00  4.1202794415216D-03
81  8.0000000000000D-01  1.2834914556883D+00  3.7906031904065D-02
82  8.1000000000000D-01  1.2710704162452D+00  7.2288892078151D-02
83  8.2000000000000D-01  1.2578149929230D+00  1.0695602287309D-01
84  8.3000000000000D-01  1.2438562481238D+00  1.4160123273251D-01
85  8.4000000000000D-01  1.2293209448007D+00  1.7592933016723D-01
86  8.5000000000000D-01  1.2143296392290D+00  2.0966032942858D-01
87  8.6000000000000D-01  1.1989948686644D+00  2.4253344727163D-01
88  8.7000000000000D-01  1.1834194604068D+00  2.7431083312105D-01
89  8.8000000000000D-01  1.1676949873679D+00  3.0478097805434D-01
90  8.9000000000000D-01  1.1519003934819D+00  3.3376175184951D-01
91  9.0000000000000D-01  1.1361008102059D+00  3.6110302191065D-01
92  9.1000000000000D-01  1.1203465829110D+00  3.8668881320357D-01
93  9.2000000000000D-01  1.1046725231718D+00  4.1043897442517D-01
94  9.3000000000000D-01  1.0890973997981D+00  4.3231032251260D-01
95  9.4000000000000D-01  1.0736236779286D+00  4.5229724527435D-01
96  9.5000000000000D-01  1.0582377721347D+00  4.7043116281795D-01
97  9.6000000000000D-01  1.0429096151631D+00  4.8678154529447D-01
98  9.7000000000000D-01  1.0275935023161D+00  5.0145408495639D-01
99  9.8000000000000D-01  1.0122290665084D+00  5.1458858441938D-01
100  9.9000000000000D-01  9.9674213593861D-01  5.2635712720375D-01
101  1.0000000000000D+00  9.8104597158319D-01  5.3696140901595D-01
102  1.0100000000000D+00  9.6504271493713D-01  5.4662960988697D-01
103  1.0200000000000D+00  9.4862505344650D-01  5.5561275359266D-01
104  1.0300000000000D+00  9.3167766850934D-01  5.6418167107262D-01
105  1.0400000000000D+00  9.1407975139701D-01  5.7262150111019D-01
106  1.0500000000000D+00  8.9570705829082D-01  5.8122720426610D-01
107  1.0600000000000D+00  8.7643402665670D-01  5.9029899318717D-01
108  1.0700000000000D+00  8.5613556898225D-01  6.0013840678472D-01
109  1.0800000000000D+00  8.3468982704705D-01  6.1104240597084D-01
110  1.0900000000000D+00  8.1198149226133D-01  6.2329618463954D-01
111  1.1000000000000D+00  7.8790288790202D-01  6.3717072672473D-01
112  1.1100000000000D+00  7.6235622532826D-01  6.5291793657058D-01
113  1.1200000000000D+00  7.3525418169807D-01  6.7076933797152D-01
114  1.1300000000000D+00  7.0652777675786D-01  6.9091919110606D-01
115  1.1400000000000D+00  6.7612281730217D-01  7.1353197357142D-01
116  1.1500000000000D+00  6.4400217727404D-01  7.3873748040999D-01
117  1.1600000000000D+00  6.1014671283135D-01  7.6662883076361D-01
118  1.1700000000000D+00  5.7456328569837D-01  7.9724522541035D-01
119  1.1800000000000D+00  5.3727800969985D-01  8.3058638351244D-01
120  1.1900000000000D+00  4.9833653624864D-01  8.6661192775905D-01
121  1.2000000000000D+00  4.5781181335801D-01  9.0522472406309D-01
122  1.2100000000000D+00  4.1580056658653D-01  9.4627842496654D-01
123  1.2200000000000D+00  3.7241920725296D-01  9.8958625567205D-01
124  1.2300000000000D+00  3.2780731435072D-01  1.0349135447789D+00
125  1.2400000000000D+00  2.8213067034555D-01  1.0819712601293D+00
126  1.2500000000000D+00  2.3557162014856D-01  1.1304367020948D+00
127  1.2600000000000D+00  1.8833160091964D-01  1.1799480769084D+00
128  1.2700000000000D+00  1.4063419880477D-01  1.2300980976529D+00
129  1.2800000000000D+00  9.2714765572022D-02  1.2804562050896D+00
130  1.2900000000000D+00  4.4823451533443D-02  1.3305620810936D+00
131  1.3000000000000D+00 -2.7774989890951D-03  1.3799317551564D+00
132  1.3100000000000D+00 -4.9818961041854D-02  1.4280685672970D+00
133  1.3200000000000D+00 -9.6023887663906D-02  1.4744611004014D+00
134  1.3300000000000D+00 -1.4111614119867D-01  1.5186024646605D+00
135  1.3400000000000D+00 -1.8481577341389D-01  1.5599797209363D+00
136  1.3500000000000D+00 -2.2684888809680D-01  1.5980956368351D+00
137  1.3600000000000D+00 -2.6695229056940D-01  1.6324786424941D+00
138  1.3700000000000D+00 -3.0485952041338D-01  1.6626522891827D+00
139  1.3800000000000D+00 -3.4033596782679D-01  1.6882119913908D+00
140  1.3900000000000D+00 -3.7315063998793D-01  1.7087632036127D+00
141  1.4000000000000D+00 -4.0309206049961D-01  1.7239563783693D+00
142  1.4100000000000D+00 -4.2998474938114D-01  1.7335219761890D+00
143  1.4200000000000D+00 -4.5365159323672D-01  1.7371899106074D+00
144  1.4300000000000D+00 -4.7397456970811D-01  1.7348160448377D+00
145  1.4400000000000D+00 -4.9084181545342D-01  1.7262666587732D+00
146  1.4500000000000D+00 -5.0417920648523D-01  1.7114828273466D+00
147  1.4600000000000D+00 -5.1395468596969D-01  1.6904794285094D+00
148  1.4700000000000D+00 -5.2014196331243D-01  1.6632849850557D+00
149  1.4800000000000D+00 -5.2278589944690D-01  1.6300468507046D+00
150  1.4900000000000D+00 -5.2192526759076D-01  1.5909041276124D+00
151  1.5000000000000D+00 -5.1766328205466D-01  1.5461001704188D+00
152  1.5100000000000D+00 -5.1011333982664D-01  1.4958960934102D+00
153  1.5200000000000D+00 -4.9942799158620D-01  1.4406160151016D+00
154  1.5300000000000D+00 -4.8579011549966D-01  1.3806354225398D+00
155  1.5400000000000D+00 -4.6939917394797D-01  1.3163570197104D+00
156  1.5500000000000D+00 -4.5049615751683D-01  1.2482576268146D+00
157  1.5600000000000D+00 -4.2932418395139D-01  1.1768166606827D+00
158  1.5700000000000D+00 -4.0616796046005D-01  1.1025952290870D+00
159  1.5800000000000D+00 -3.8131130731360D-01  1.0261504156809D+00
160  1.5900000000000D+00 -3.5506665789056D-01  9.4810444961068D-01
161  1.6000000000000D+00 -3.2774980742896D-01  8.6908332037019D-01
162  1.6100000000000D+00 -2.9968933744280D-01  7.8975123214484D-01
163  1.6200000000000D+00 -2.7121908824774D-01  7.1078136000802D-01
164  1.6300000000000D+00 -2.4267333242566D-01  6.3286066629006D-01
165  1.6400000000000D+00 -2.1438870056147D-01  5.5668094157050D-01
166  1.6500000000000D+00 -1.8669330578306D-01  4.8292768918249D-01
167  1.6600000000000D+00 -1.5991162389104D-01  4.1227984494723D-01
168  1.6700000000000D+00 -1.3435246048955D-01  3.4539272387839D-01
169  1.6800000000000D+00 -1.1031437296563D-01  2.8290115237468D-01
170  1.6900000000000D+00 -8.8072777808223D-02  2.2539824265040D-01
171  1.7000000000000D+00 -6.7888530215077D-02  1.7344665091668D-01
172  1.7100000000000D+00 -4.9989269887138D-02  1.2754385889202D-01
173  1.7200000000000D+00 -3.4588936892913D-02  8.8157687351207D-02
174  1.7300000000000D+00 -2.1853585066762D-02  5.5657548519767D-02
175  1.7400000000000D+00 -1.1943846990149D-02  3.0400211744759D-02
176  1.7500000000000D+00 -5.1006600714389D-03  1.2977844096343D-02
177  1.7600000000000D+00 -1.3981908468836D-03  3.5510879430383D-03
178  1.7700000000000D+00  2.0655038982374D-04 -5.3044124003545D-04
179  1.7800000000000D+00  4.2204378552172D-04 -1.0765993545111D-03
180  1.7900000000000D+00 -2.4599932279947D-07  6.8447683198101D-07
181  1.8000000000000D+00 -1.3831521599764D-06  3.8485293285951D-06
182  1.8100000000000D+00 -1.2306987292775D-07  3.4243377491960D-07
183  1.8200000000000D+00  0.0000000000000D+00  0.0000000000000D+00
184  1.8300000000000D+00  0.0000000000000D+00  0.0000000000000D+00
185  1.8400000000000D+00  0.0000000000000D+00  0.0000000000000D+00
186  1.8500000000000D+00  0.0000000000000D+00  0.0000000000000D+00
187  1.8600000000000D+00  0.0000000000000D+00  0.0000000000000D+00
188  1.8700000000000D+00  0.0000000000000D+00  0.0000000000000D+00
189  1.8800000000000D+00  0.0000000000000D+00  0.0000000000000D+00
190  1.8900000000000D+00  0.0000000000000D+00  0.0000000000000D+00
191  1.9000000000000D+00  0.0000000000000D+00  0.0000000000000D+00
192  1.9100000000000D+00  0.0000000000000D+00  0.0000000000000D+00
193  1.9200000000000D+00  0.0000000000000D+00  0.0000000000000D+00
194  1.9300000000000D+00  0.0000000000000D+00  0.0000000000000D+00
195  1.9400000000000D+00  0.0000000000000D+00  0.0000000000000D+00
196  1.9500000000000D+00  0.0000000000000D+00  0.0000000000000D+00
197  1.9600000000000D+00  0.0000000000000D+00  0.0000000000000D+00
198  1.9700000000000D+00  0.0000000000000D+00  0.0000000000000D+00
199  1.9800000000000D+00  0.0000000000000D+00  0.0000000000000D+00
200  1.9900000000000D+00  0.0000000000000D+00  0.0000000000000D+00
201  2.0000000000000D+00  0.0000000000000D+00  0.0000000000000D+00
202  2.0100000000000D+00  0.0000000000000D+00  0.0000000000000D+00
203  2.0200000000000D+00  0.0000000000000D+00  0.0000000000000D+00
204  2.0300000000000D+00  0.0000000000000D+00  0.0000000000000D+00
205  2.0400000000000D+00  0.0000000000000D+00  0.0000000000000D+00
206  2.0500000000000D+00  0.0000000000000D+00  0.0000000000000D+00
207  2.0600000000000D+00  0.0000000000000D+00  0.0000000000000D+00
208  2.0700000000000D+00  0.0000000000000D+00  0.0000000000000D+00
209  2.0800000000000D+00  0.0000000000000D+00  0.0000000000000D+00
210  2.0900000000000D+00  0.0000000000000D+00  0.0000000000000D+00
211  2.1000000000000D+00  0.0000000000000D+00  0.0000000000000D+00
212  2.1100000000000D+00  0.0000000000000D+00  0.0000000000000D+00
213  2.1200000000000D+00  0.0000000000000D+00  0.0000000000000D+00
214  2.1300000000000D+00  0.0000000000000D+00  0.0000000000000D+00
215  2.1400000000000D+00  0.0000000000000D+00  0.0000000000000D+00
216  2.1500000000000D+00  0.0000000000000D+00  0.0000000000000D+00
217  2.1600000000000D+00  0.0000000000000D+00  0.0000000000000D+00
218  2.1700000000000D+00  0.0000000000000D+00  0.0000000000000D+00
219  2.1800000000000D+00  0.0000000000000D+00  0.0000000000000D+00
220  2.1900000000000D+00  0.0000000000000D+00  0.0000000000000D+00
221  2.2000000000000D+00  0.0000000000000D+00  0.0000000000000D+00
222  2.2100000000000D+00  0.0000000000000D+00  0.0000000000000D+00
223  2.2200000000000D+00  0.0000000000000D+00  0.0000000000000D+00
224  2.2300000000000D+00  0.0000000000000D+00  0.0000000000000D+00
225  2.2400000000000D+00  0.0000000000000D+00  0.0000000000000D+00
226  2.2500000000000D+00  0.0000000000000D+00  0.0000000000000D+00
227  2.2600000000000D+00  0.0000000000000D+00  0.0000000000000D+00
228  2.2700000000000D+00  0.0000000000000D+00  0.0000000000000D+00
229  2.2800000000000D+00  0.0000000000000D+00  0.0000000000000D+00
230  2.2900000000000D+00  0.0000000000000D+00  0.0000000000000D+00
231  2.3000000000000D+00  0.0000000000000D+00  0.0000000000000D+00
232  2.3100000000000D+00  0.0000000000000D+00  0.0000000000000D+00
233  2.3200000000000D+00  0.0000000000000D+00  0.0000000000000D+00
234  2.3300000000000D+00  0.0000000000000D+00  0.0000000000000D+00
235  2.3400000000000D+00  0.0000000000000D+00  0.0000000000000D+00
236  2.3500000000000D+00  0.0000000000000D+00  0.0000000000000D+00
237  2.3600000000000D+00  0.0000000000000D+00  0.0000000000000D+00
238  2.3700000000000D+00  0.0000000000000D+00  0.0000000000000D+00
239  2.3800000000000D+00  0.0000000000000D+00  0.0000000000000D+00
240  2.3900000000000D+00  0.0000000000000D+00  0.0000000000000D+00
241  2.4000000000000D+00  0.0000000000000D+00  0.0000000000000D+00
242  2.4100000000000D+00  0.0000000000000D+00  0.0000000000000D+00
243  2.4200000000000D+00  0.0000000000000D+00  0.0000000000000D+00
244  2.4300000000000D+00  0.0000000000000D+00  0.0000000000000D+00
245  2.4400000000000D+00  0.0000000000000D+00  0.0000000000000D+00
246  2.4500000000000D+00  0.0000000000000D+00  0.0000000000000D+00
247  2.4600000000000D+00  0.0000000000000D+00  0.0000000000000D+00
248  2.4700000000000D+00  0.0000000000000D+00  0.0000000000000D+00
249  2.4800000000000D+00  0.0000000000000D+00  0.0000000000000D+00
250  2.4900000000000D+00  0.0000000000000D+00  0.0000000000000D+00
251  2.5000000000000D+00  0.0000000000000D+00  0.0000000000000D+00
252  2.5100000000000D+00  0.0000000000000D+00  0.0000000000000D+00
253  2.5200000000000D+00  0.0000000000000D+00  0.0000000000000D+00
254  2.5300000000000D+00  0.0000000000000D+00  0.0000000000000D+00
255  2.5400000000000D+00  0.0000000000000D+00  0.0000000000000D+00
256  2.5500000000000D+00  0.0000000000000D+00  0.0000000000000D+00
257  2.5600000000000D+00  0.0000000000000D+00  0.0000000000000D+00
258  2.5700000000000D+00  0.0000000000000D+00  0.0000000000000D+00
259  2.5800000000000D+00  0.0000000000000D+00  0.0000000000000D+00
260  2.5900000000000D+00  0.0000000000000D+00  0.0000000000000D+00
261  2.6000000000000D+00  0.0000000000000D+00  0.0000000000000D+00
262  2.6100000000000D+00  0.0000000000000D+00  0.0000000000000D+00
263  2.6200000000000D+00  0.0000000000000D+00  0.0000000000000D+00
264  2.6300000000000D+00  0.0000000000000D+00  0.0000000000000D+00
265  2.6400000000000D+00  0.0000000000000D+00  0.0000000000000D+00
266  2.6500000000000D+00  0.0000000000000D+00  0.0000000000000D+00
267  2.6600000000000D+00  0.0000000000000D+00  0.0000000000000D+00
268  2.6700000000000D+00  0.0000000000000D+00  0.0000000000000D+00
269  2.6800000000000D+00  0.0000000000000D+00  0.0000000000000D+00
270  2.6900000000000D+00  0.0000000000000D+00  0.0000000000000D+00
271  2.7000000000000D+00  0.0000000000000D+00  0.0000000000000D+00
272  2.7100000000000D+00  0.0000000000000D+00  0.0000000000000D+00
273  2.7200000000000D+00  0.0000000000000D+00  0.0000000000000D+00
274  2.7300000000000D+00  0.0000000000000D+00  0.0000000000000D+00
275  2.7400000000000D+00  0.0000000000000D+00  0.0000000000000D+00
276  2.7500000000000D+00  0.0000000000000D+00  0.0000000000000D+00
277  2.7600000000000D+00  0.0000000000000D+00  0.0000000000000D+00
278  2.7700000000000D+00  0.0000000000000D+00  0.0000000000000D+00
279  2.7800000000000D+00  0.0000000000000D+00  0.0000000000000D+00
280  2.7900000000000D+00  0.0000000000000D+00  0.0000000000000D+00
281  2.8000000000000D+00  0.0000000000000D+00  0.0000000000000D+00
282  2.8100000000000D+00  0.0000000000000D+00  0.0000000000000D+00
283  2.8200000000000D+00  0.0000000000000D+00  0.0000000000000D+00
284  2.8300000000000D+00  0.0000000000000D+00  0.0000000000000D+00
285  2.8400000000000D+00  0.0000000000000D+00  0.0000000000000D+00
286  2.8500000000000D+00  0.0000000000000D+00  0.0000000000000D+00
287  2.8600000000000D+00  0.0000000000000D+00  0.0000000000000D+00
288  2.8700000000000D+00  0.0000000000000D+00  0.0000000000000D+00
289  2.8800000000000D+00  0.0000000000000D+00  0.0000000000000D+00
290  2.8900000000000D+00  0.0000000000000D+00  0.0000000000000D+00
291  2.9000000000000D+00  0.0000000000000D+00  0.0000000000000D+00
292  2.9100000000000D+00  0.0000000000000D+00  0.0000000000000D+00
293  2.9200000000000D+00  0.0000000000000D+00  0.0000000000000D+00
294  2.9300000000000D+00  0.0000000000000D+00  0.0000000000000D+00
295  2.9400000000000D+00  0.0000000000000D+00  0.0000000000000D+00
296  2.9500000000000D+00  0.0000000000000D+00  0.0000000000000D+00
297  2.9600000000000D+00  0.0000000000000D+00  0.0000000000000D+00
298  2.9700000000000D+00  0.0000000000000D+00  0.0000000000000D+00
299  2.9800000000000D+00  0.0000000000000D+00  0.0000000000000D+00
300  2.9900000000000D+00  0.0000000000000D+00  0.0000000000000D+00
301  3.0000000000000D+00  0.0000000000000D+00  0.0000000000000D+00
302  3.0100000000000D+00  0.0000000000000D+00  0.0000000000000D+00
303  3.0200000000000D+00  0.0000000000000D+00  0.0000000000000D+00
304  3.0300000000000D+00  0.0000000000000D+00  0.0000000000000D+00
305  3.0400000000000D+00  0.0000000000000D+00  0.0000000000000D+00
306  3.0500000000000D+00  0.0000000000000D+00  0.0000000000000D+00
307  3.0600000000000D+00  0.0000000000000D+00  0.0000000000000D+00
308  3.0700000000000D+00  0.0000000000000D+00  0.0000000000000D+00
309  3.0800000000000D+00  0.0000000000000D+00  0.0000000000000D+00
310  3.0900000000000D+00  0.0000000000000D+00  0.0000000000000D+00
311  3.1000000000000D+00  0.0000000000000D+00  0.0000000000000D+00
312  3.1100000000000D+00  0.0000000000000D+00  0.0000000000000D+00
313  3.1200000000000D+00  0.0000000000000D+00  0.0000000000000D+00
314  3.1300000000000D+00  0.0000000000000D+00  0.0000000000000D+00
315  3.1400000000000D+00  0.0000000000000D+00  0.0000000000000D+00
316  3.1500000000000D+00  0.0000000000000D+00  0.0000000000000D+00
317  3.1600000000000D+00  0.0000000000000D+00  0.0000000000000D+00
318  3.1700000000000D+00  0.0000000000000D+00  0.0000000000000D+00
319  3.1800000000000D+00  0.0000000000000D+00  0.0000000000000D+00
320  3.1900000000000D+00  0.0000000000000D+00  0.0000000000000D+00
321  3.2000000000000D+00  0.0000000000000D+00  0.0000000000000D+00
322  3.2100000000000D+00  0.0000000000000D+00  0.0000000000000D+00
323  3.2200000000000D+00  0.0000000000000D+00  0.0000000000000D+00
324  3.2300000000000D+00  0.0000000000000D+00  0.0000000000000D+00
325  3.2400000000000D+00  0.0000000000000D+00  0.0000000000000D+00
326  3.2500000000000D+00  0.0000000000000D+00  0.0000000000000D+00
327  3.2600000000000D+00  0.0000000000000D+00  0.0000000000000D+00
328  3.2700000000000D+00  0.0000000000000D+00  0.0000000000000D+00
329  3.2800000000000D+00  0.0000000000000D+00  0.0000000000000D+00
330  3.2900000000000D+00  0.0000000000000D+00  0.0000000000000D+00
331  3.3000000000000D+00  0.0000000000000D+00  0.0000000000000D+00
332  3.3100000000000D+00  0.0000000000000D+00  0.0000000000000D+00
333  3.3200000000000D+00  0.0000000000000D+00  0.0000000000000D+00
334  3.3300000000000D+00  0.0000000000000D+00  0.0000000000000D+00
335  3.3400000000000D+00  0.0000000000000D+00  0.0000000000000D+00
336  3.3500000000000D+00  0.0000000000000D+00  0.0000000000000D+00
337  3.3600000000000D+00  0.0000000000000D+00  0.0000000000000D+00
338  3.3700000000000D+00  0.0000000000000D+00  0.0000000000000D+00
339  3.3800000000000D+00  0.0000000000000D+00  0.0000000000000D+00
340  3.3900000000000D+00  0.0000000000000D+00  0.0000000000000D+00
341  3.4000000000000D+00  0.0000000000000D+00  0.0000000000000D+00
342  3.4100000000000D+00  0.0000000000000D+00  0.0000000000000D+00
343  3.4200000000000D+00  0.0000000000000D+00  0.0000000000000D+00
344  3.4300000000000D+00  0.0000000000000D+00  0.0000000000000D+00
345  3.4400000000000D+00  0.0000000000000D+00  0.0000000000000D+00
346  3.4500000000000D+00  0.0000000000000D+00  0.0000000000000D+00
347  3.4600000000000D+00  0.0000000000000D+00  0.0000000000000D+00
348  3.4700000000000D+00  0.0000000000000D+00  0.0000000000000D+00
349  3.4800000000000D+00  0.0000000000000D+00  0.0000000000000D+00
350  3.4900000000000D+00  0.0000000000000D+00  0.0000000000000D+00
351  3.5000000000000D+00  0.0000000000000D+00  0.0000000000000D+00
352  3.5100000000000D+00  0.0000000000000D+00  0.0000000000000D+00
353  3.5200000000000D+00  0.0000000000000D+00  0.0000000000000D+00
354  3.5300000000000D+00  0.0000000000000D+00  0.0000000000000D+00
355  3.5400000000000D+00  0.0000000000000D+00  0.0000000000000D+00
356  3.5500000000000D+00  0.0000000000000D+00  0.0000000000000D+00
357  3.5600000000000D+00  0.0000000000000D+00  0.0000000000000D+00
358  3.5700000000000D+00  0.0000000000000D+00  0.0000000000000D+00
359  3.5800000000000D+00  0.0000000000000D+00  0.0000000000000D+00
360  3.5900000000000D+00  0.0000000000000D+00  0.0000000000000D+00
361  3.6000000000000D+00  0.0000000000000D+00  0.0000000000000D+00
362  3.6100000000000D+00  0.0000000000000D+00  0.0000000000000D+00
363  3.6200000000000D+00  0.0000000000000D+00  0.0000000000000D+00
364  3.6300000000000D+00  0.0000000000000D+00  0.0000000000000D+00
365  3.6400000000000D+00  0.0000000000000D+00  0.0000000000000D+00
366  3.6500000000000D+00  0.0000000000000D+00  0.0000000000000D+00
367  3.6600000000000D+00  0.0000000000000D+00  0.0000000000000D+00
368  3.6700000000000D+00  0.0000000000000D+00  0.0000000000000D+00
369  3.6800000000000D+00  0.0000000000000D+00  0.0000000000000D+00
370  3.6900000000000D+00  0.0000000000000D+00  0.0000000000000D+00
371  3.7000000000000D+00  0.0000000000000D+00  0.0000000000000D+00
372  3.7100000000000D+00  0.0000000000000D+00  0.0000000000000D+00
373  3.7200000000000D+00  0.0000000000000D+00  0.0000000000000D+00
374  3.7300000000000D+00  0.0000000000000D+00  0.0000000000000D+00
375  3.7400000000000D+00  0.0000000000000D+00  0.0000000000000D+00
376  3.7500000000000D+00  0.0000000000000D+00  0.0000000000000D+00
377  3.7600000000000D+00  0.0000000000000D+00  0.0000000000000D+00
378  3.7700000000000D+00  0.0000000000000D+00  0.0000000000000D+00
379  3.7800000000000D+00  0.0000000000000D+00  0.0000000000000D+00
380  3.7900000000000D+00  0.0000000000000D+00  0.0000000000000D+00
381  3.8000000000000D+00  0.0000000000000D+00  0.0000000000000D+00
382  3.8100000000000D+00  0.0000000000000D+00  0.0000000000000D+00
383  3.8200000000000D+00  0.0000000000000D+00  0.0000000000000D+00
384  3.8300000000000D+00  0.0000000000000D+00  0.0000000000000D+00
385  3.8400000000000D+00  0.0000000000000D+00  0.0000000000000D+00
386  3.8500000000000D+00  0.0000000000000D+00  0.0000000000000D+00
387  3.8600000000000D+00  0.0000000000000D+00  0.0000000000000D+00
388  3.8700000000000D+00  0.0000000000000D+00  0.0000000000000D+00
389  3.8800000000000D+00  0.0000000000000D+00  0.0000000000000D+00
390  3.8900000000000D+00  0.0000000000000D+00  0.0000000000000D+00
391  3.9000000000000D+00  0.0000000000000D+00  0.0000000000000D+00
392  3.9100000000000D+00  0.0000000000000D+00  0.0000000000000D+00
393  3.9200000000000D+00  0.0000000000000D+00  0.0000000000000D+00
394  3.9300000000000D+00  0.0000000000000D+00  0.0000000000000D+00
395  3.9400000000000D+00  0.0000000000000D+00  0.0000000000000D+00
396  3.9500000000000D+00  0.0000000000000D+00  0.0000000000000D+00
397  3.9600000000000D+00  0.0000000000000D+00  0.0000000000000D+00
398  3.9700000000000D+00  0.0000000000000D+00  0.0000000000000D+00
399  3.9800000000000D+00  0.0000000000000D+00  0.0000000000000D+00
400  3.9900000000000D+00  0.0000000000000D+00  0.0000000000000D+00
401  4.0000000000000D+00  0.0000000000000D+00  0.0000000000000D+00
402  4.0100000000000D+00  0.0000000000000D+00  0.0000000000000D+00
403  4.0200000000000D+00  0.0000000000000D+00  0.0000000000000D+00
404  4.0300000000000D+00  0.0000000000000D+00  0.0000000000000D+00
405  4.0400000000000D+00  0.0000000000000D+00  0.0000000000000D+00
406  4.0500000000000D+00  0.0000000000000D+00  0.0000000000000D+00
407  4.0600000000000D+00  0.0000000000000D+00  0.0000000000000D+00
408  4.0700000000000D+00  0.0000000000000D+00  0.0000000000000D+00
409  4.0800000000000D+00  0.0000000000000D+00  0.0000000000000D+00
410  4.0900000000000D+00  0.0000000000000D+00  0.0000000000000D+00
411  4.1000000000000D+00  0.0000000000000D+00  0.0000000000000D+00
412  4.1100000000000D+00  0.0000000000000D+00  0.0000000000000D+00
413  4.1200000000000D+00  0.0000000000000D+00  0.0000000000000D+00
414  4.1300000000000D+00  0.0000000000000D+00  0.0000000000000D+00
415  4.1400000000000D+00  0.0000000000000D+00  0.0000000000000D+00
416  4.1500000000000D+00  0.0000000000000D+00  0.0000000000000D+00
417  4.1600000000000D+00  0.0000000000000D+00  0.0000000000000D+00
418  4.1700000000000D+00  0.0000000000000D+00  0.0000000000000D+00
419  4.1800000000000D+00  0.0000000000000D+00  0.0000000000000D+00
420  4.1900000000000D+00  0.0000000000000D+00  0.0000000000000D+00
421  4.2000000000000D+00  0.0000000000000D+00  0.0000000000000D+00
422  4.2100000000000D+00  0.0000000000000D+00  0.0000000000000D+00
423  4.2200000000000D+00  0.0000000000000D+00  0.0000000000000D+00
424  4.2300000000000D+00  0.0000000000000D+00  0.0000000000000D+00
425  4.2400000000000D+00  0.0000000000000D+00  0.0000000000000D+00
426  4.2500000000000D+00  0.0000000000000D+00  0.0000000000000D+00
427  4.2600000000000D+00  0.0000000000000D+00  0.0000000000000D+00
428  4.2700000000000D+00  0.0000000000000D+00  0.0000000000000D+00
429  4.2800000000000D+00  0.0000000000000D+00  0.0000000000000D+00
430  4.2900000000000D+00  0.0000000000000D+00  0.0000000000000D+00
431  4.3000000000000D+00  0.0000000000000D+00  0.0000000000000D+00
432  4.3100000000000D+00  0.0000000000000D+00  0.0000000000000D+00
433  4.3200000000000D+00  0.0000000000000D+00  0.0000000000000D+00
434  4.3300000000000D+00  0.0000000000000D+00  0.0000000000000D+00
435  4.3400000000000D+00  0.0000000000000D+00  0.0000000000000D+00
436  4.3500000000000D+00  0.0000000000000D+00  0.0000000000000D+00
437  4.3600000000000D+00  0.0000000000000D+00  0.0000000000000D+00
438  4.3700000000000D+00  0.0000000000000D+00  0.0000000000000D+00
439  4.3800000000000D+00  0.0000000000000D+00  0.0000000000000D+00
440  4.3900000000000D+00  0.0000000000000D+00  0.0000000000000D+00
441  4.4000000000000D+00  0.0000000000000D+00  0.0000000000000D+00
442  4.4100000000000D+00  0.0000000000000D+00  0.0000000000000D+00
443  4.4200000000000D+00  0.0000000000000D+00  0.0000000000000D+00
444  4.4300000000000D+00  0.0000000000000D+00  0.0000000000000D+00