Ga    ONCVPSP-3.3.0  r_core=   1.85767   1.81388   2.62545
     31.0000      3.0000      171209    zatom,zion,pspd
     8      11   2     4   600     0    pspcod,pspxc,lmax,lloc,mmax,r2well
  5.99000000  0.50000000  0.00000000    rchrg fchrg qchrg
     2     4     4     0    nproj
     3     1           extension_switch
     4     4     0    nprojso
   0                         6.7716291749671D-01  6.4381339326388D+00
     1  0.0000000000000D+00 -3.1808472522599D-11  1.5438372802379D-11
     2  1.0000000000000D-02 -1.1448064259113D-02  2.5718023049853D-02
     3  2.0000000000000D-02 -2.2918059457861D-02  5.1445659746236D-02
     4  3.0000000000000D-02 -3.4431647637739D-02  7.7192381355694D-02
     5  4.0000000000000D-02 -4.6009954632288D-02  1.0296737517446D-01
     6  5.0000000000000D-02 -5.7673305925955D-02  1.2877940451359D-01
     7  6.0000000000000D-02 -6.9440967245954D-02  1.5463667103753D-01
     8  7.0000000000000D-02 -8.1330891427704D-02  1.8054668022258D-01
     9  8.0000000000000D-02 -9.3359473062562D-02  2.0651611068629D-01
    10  9.0000000000000D-02 -1.0554131239756D-01  2.3255068811964D-01
    11  1.0000000000000D-01 -1.1788898990969D-01  2.5865506453136D-01
    12  1.1000000000000D-01 -1.3041285292377D-01  2.8483270348716D-01
    13  1.2000000000000D-01 -1.4312081558120D-01  3.1108577199732D-01
    14  1.3000000000000D-01 -1.5601817339961D-01  3.3741503967274D-01
    15  1.4000000000000D-01 -1.6910743358900D-01  3.6381978573390D-01
    16  1.5000000000000D-01 -1.8238816220951D-01  3.9029771441782D-01
    17  1.6000000000000D-01 -1.9585684916957D-01  4.1684487928625D-01
    18  1.7000000000000D-01 -2.0950679197258D-01  4.4345561689426D-01
    19  1.8000000000000D-01 -2.2332799902255D-01  4.7012249023104D-01
    20  1.9000000000000D-01 -2.3730711319937D-01  4.9683624229615D-01
    21  2.0000000000000D-01 -2.5142735630861D-01  5.2358576012319D-01
    22  2.1000000000000D-01 -2.6566849490279D-01  5.5035804951040D-01
    23  2.2000000000000D-01 -2.8000682785894D-01  5.7713822066332D-01
    24  2.3000000000000D-01 -2.9441519598382D-01  6.0390948489948D-01
    25  2.4000000000000D-01 -3.0886301380163D-01  6.3065316250860D-01
    26  2.5000000000000D-01 -3.2331632356184D-01  6.5734870180485D-01
    27  2.6000000000000D-01 -3.3773787138631D-01  6.8397370935021D-01
    28  2.7000000000000D-01 -3.5208720535628D-01  7.1050399127053D-01
    29  2.8000000000000D-01 -3.6632079522152D-01  7.3691360552820D-01
    30  2.9000000000000D-01 -3.8039217329660D-01  7.6317492495873D-01
    31  3.0000000000000D-01 -3.9425209599282D-01  7.8925871082182D-01
    32  3.1000000000000D-01 -4.0784872532097D-01  8.1513419656242D-01
    33  3.2000000000000D-01 -4.2112782958845D-01  8.4076918142324D-01
    34  3.3000000000000D-01 -4.3403300240599D-01  8.6613013349744D-01
    35  3.4000000000000D-01 -4.4650589901536D-01  8.9118230175983D-01
    36  3.5000000000000D-01 -4.5848648884900D-01  9.1588983656599D-01
    37  3.6000000000000D-01 -4.6991332313724D-01  9.4021591806257D-01
    38  3.7000000000000D-01 -4.8072381628933D-01  9.6412289190820D-01
    39  3.8000000000000D-01 -4.9085453969032D-01  9.8757241166372D-01
    40  3.9000000000000D-01 -5.0024152647774D-01  1.0105255871721D+00
    41  4.0000000000000D-01 -5.0882058579215D-01  1.0329431382145D+00
    42  4.1000000000000D-01 -5.1652762493123D-01  1.0547855526968D+00
    43  4.2000000000000D-01 -5.2329897778078D-01  1.0760132485946D+00
    44  4.3000000000000D-01 -5.2907173784921D-01  1.0965867388593D+00
    45  4.4000000000000D-01 -5.3378409419040D-01  1.1164667984697D+00
    46  4.5000000000000D-01 -5.3737566847034D-01  1.1356146327972D+00
    47  4.6000000000000D-01 -5.3978785140909D-01  1.1539920464398D+00
    48  4.7000000000000D-01 -5.4096413681680D-01  1.1715616116762D+00
    49  4.8000000000000D-01 -5.4085045143823D-01  1.1882868356842D+00
    50  4.9000000000000D-01 -5.3939547882469D-01  1.2041323256724D+00
    51  5.0000000000000D-01 -5.3655097546672D-01  1.2190639510787D+00
    52  5.1000000000000D-01 -5.3227207744466D-01  1.2330490019994D+00
    53  5.2000000000000D-01 -5.2651759588738D-01  1.2460563430280D+00
    54  5.3000000000000D-01 -5.1925029956998D-01  1.2580565617014D+00
    55  5.4000000000000D-01 -5.1043718303520D-01  1.2690221107759D+00
    56  5.5000000000000D-01 -5.0004971868061D-01  1.2789274435801D+00
    57  5.6000000000000D-01 -4.8806409132482D-01  1.2877491417283D+00
    58  5.7000000000000D-01 -4.7446141384179D-01  1.2954660345083D+00
    59  5.8000000000000D-01 -4.5922792253773D-01  1.3020593093018D+00
    60  5.9000000000000D-01 -4.4235515103963D-01  1.3075126124361D+00
    61  6.0000000000000D-01 -4.2384008156254D-01  1.3118121399120D+00
    62  6.1000000000000D-01 -4.0368527253212D-01  1.3149467175050D+00
    63  6.2000000000000D-01 -3.8189896165114D-01  1.3169078697885D+00
    64  6.3000000000000D-01 -3.5849514361845D-01  1.3176898776808D+00
    65  6.4000000000000D-01 -3.3349362183365D-01  1.3172898241801D+00
    66  6.5000000000000D-01 -3.0692003354949D-01  1.3157076280082D+00
    67  6.6000000000000D-01 -2.7880584806708D-01  1.3129460649459D+00
    68  6.7000000000000D-01 -2.4918833770617D-01  1.3090107767087D+00
    69  6.8000000000000D-01 -2.1811052141986D-01  1.3039102672720D+00
    70  6.9000000000000D-01 -1.8562108106603D-01  1.2976558866247D+00
    71  7.0000000000000D-01 -1.5177425048751D-01  1.2902618019909D+00
    72  7.1000000000000D-01 -1.1662967769656D-01  1.2817449566306D+00
    73  7.2000000000000D-01 -8.0252260600446D-02  1.2721250163907D+00
    74  7.3000000000000D-01 -4.2711956843988D-02  1.2614243042462D+00
    75  7.4000000000000D-01 -4.0835684862331D-03  1.2496677231339D+00
    76  7.5000000000000D-01  3.5553497639039D-02  1.2368826674436D+00
    77  7.6000000000000D-01  7.6115492895264D-02  1.2230989235920D+00
    78  7.7000000000000D-01  1.1751461203654D-01  1.2083485601660D+00
    79  7.8000000000000D-01  1.5965929938968D-01  1.1926658081742D+00
    80  7.9000000000000D-01  2.0245457467327D-01  1.1760869320024D+00
    81  8.0000000000000D-01  2.4580237699346D-01  1.1586500917194D+00
    82  8.1000000000000D-01  2.8960192545170D-01  1.1403951974236D+00
    83  8.2000000000000D-01  3.3375009470407D-01  1.1213637563682D+00
    84  8.3000000000000D-01  3.7814180372480D-01  1.1015987136402D+00
    85  8.4000000000000D-01  4.2267041594768D-01  1.0811442872042D+00
    86  8.5000000000000D-01  4.6722814889024D-01  1.0600457981539D+00
    87  8.6000000000000D-01  5.1170649130576D-01  1.0383494970396D+00
    88  8.7000000000000D-01  5.5599662585940D-01  1.0161023871635D+00
    89  8.8000000000000D-01  5.9998985528555D-01  9.9335204574832D-01
    90  8.9000000000000D-01  6.4357802995625D-01  9.7014644390045D-01
    91  9.0000000000000D-01  6.8665397477312D-01  9.4653376629234D-01
    92  9.1000000000000D-01  7.2911191328955D-01  9.2256223149221D-01
    93  9.2000000000000D-01  7.7084788697632D-01  8.9827991386440D-01
    94  9.3000000000000D-01  8.1176016755899D-01  8.7373456795545D-01
    95  9.4000000000000D-01  8.5174966038496D-01  8.4897345626651D-01
    96  9.5000000000000D-01  8.9072029681726D-01  8.2404318129326D-01
    97  9.6000000000000D-01  9.2857941370059D-01  7.9898952269110D-01
    98  9.7000000000000D-01  9.6523811800758D-01  7.7385728039333D-01
    99  9.8000000000000D-01  1.0006116348442D+00  7.4869012447664D-01
   100  9.9000000000000D-01  1.0346196370735D+00  7.2353045252968D-01
   101  1.0000000000000D+00  1.0671865549093D+00  6.9841925523789D-01
   102  1.0100000000000D+00  1.0982418639278D+00  6.7339599085096D-01
   103  1.0200000000000D+00  1.1277203500594D+00  6.4849846914791D-01
   104  1.0300000000000D+00  1.1555623502328D+00  6.2376274546197D-01
   105  1.0400000000000D+00  1.1817139674697D+00  5.9922302526952D-01
   106  1.0500000000000D+00  1.2061272593595D+00  5.7491157978623D-01
   107  1.0600000000000D+00  1.2287603989776D+00  5.5085867295251D-01
   108  1.0700000000000D+00  1.2495778074517D+00  5.2709250012418D-01
   109  1.0800000000000D+00  1.2685502575293D+00  5.0363913871657D-01
   110  1.0900000000000D+00  1.2856549476344D+00  4.8052251098930D-01
   111  1.1000000000000D+00  1.3008755460722D+00  4.5776435907951D-01
   112  1.1100000000000D+00  1.3142022051751D+00  4.3538423233096D-01
   113  1.1200000000000D+00  1.3256315453526D+00  4.1339948689001D-01
   114  1.1300000000000D+00  1.3351666091367D+00  3.9182529748030D-01
   115  1.1400000000000D+00  1.3428167854878D+00  3.7067468119030D-01
   116  1.1500000000000D+00  1.3485977047659D+00  3.4995853304562D-01
   117  1.1600000000000D+00  1.3525311049270D+00  3.2968567306772D-01
   118  1.1700000000000D+00  1.3546446696192D+00  3.0986290447110D-01
   119  1.1800000000000D+00  1.3549718390247D+00  2.9049508257429D-01
   120  1.1900000000000D+00  1.3535515944086D+00  2.7158519394968D-01
   121  1.2000000000000D+00  1.3504282174711D+00  2.5313444527902D-01
   122  1.2100000000000D+00  1.3456510256829D+00  2.3514236134479D-01
   123  1.2200000000000D+00  1.3392740849495D+00  2.1760689151628D-01
   124  1.2300000000000D+00  1.3313559010241D+00  2.0052452405998D-01
   125  1.2400000000000D+00  1.3219590911532D+00  1.8389040757499D-01
   126  1.2500000000000D+00  1.3111500375763D+00  1.6769847879900D-01
   127  1.2600000000000D+00  1.2989985245501D+00  1.5194159601221D-01
   128  1.2700000000000D+00  1.2855773606065D+00  1.3661167725019D-01
   129  1.2800000000000D+00  1.2709619878459D+00  1.2169984250277D-01
   130  1.2900000000000D+00  1.2552300800905D+00  1.0719655907162D-01
   131  1.3000000000000D+00  1.2384611317348D+00  9.3091789253605D-02
   132  1.3100000000000D+00  1.2207360391841D+00  7.9375139502911D-02
   133  1.3200000000000D+00  1.2021366767417D+00  6.6036010245828D-02
   134  1.3300000000000D+00  1.1827454688257D+00  5.3063745510646D-02
   135  1.3400000000000D+00  1.1626449603819D+00  4.0447781556690D-02
   136  1.3500000000000D+00  1.1419173872775D+00  2.8177793729679D-02
   137  1.3600000000000D+00  1.1206442485363D+00  1.6243840730241D-02
   138  1.3700000000000D+00  1.0989058820925D+00  4.6365055914120D-03
   139  1.3800000000000D+00  1.0767810457544D+00 -6.6529673533664D-03
   140  1.3900000000000D+00  1.0543465050611D+00 -1.7632540218228D-02
   141  1.4000000000000D+00  1.0316766294262D+00 -2.8309254585246D-02
   142  1.4100000000000D+00  1.0088429981781D+00 -3.8689110465595D-02
   143  1.4200000000000D+00  9.8591401774738D-01 -4.8776951679878D-02
   144  1.4300000000000D+00  9.6295455122972D-01 -5.8576358129597D-02
   145  1.4400000000000D+00  9.4002556164745D-01 -6.8089545474710D-02
   146  1.4500000000000D+00  9.1718376964166D-01 -7.7317272435314D-02
   147  1.4600000000000D+00  8.9448132685538D-01 -8.6258756201093D-02
   148  1.4700000000000D+00  8.7196550551594D-01 -9.4911596053348D-02
   149  1.4800000000000D+00  8.4967840501475D-01 -1.0327170545242D-01
   150  1.4900000000000D+00  8.2765667610863D-01 -1.1133325275267D-01
   151  1.5000000000000D+00  8.0593126285782D-01 -1.1908861046059D-01
   152  1.5100000000000D+00  7.8452716307846D-01 -1.2652831327300D-01
   153  1.5200000000000D+00  7.6346320687776D-01 -1.3364102454459D-01
   154  1.5300000000000D+00  7.4275185391137D-01 -1.4041351135339D-01
   155  1.5400000000000D+00  7.2239900877173D-01 -1.4683062773765D-01
   156  1.5500000000000D+00  7.0240385466804D-01 -1.5287530604173D-01
   157  1.5600000000000D+00  6.8275870153284D-01 -1.5852855555151D-01
   158  1.5700000000000D+00  6.6344887025631D-01 -1.6376947097611D-01
   159  1.5800000000000D+00  6.4445252718559D-01 -1.6857523892855D-01
   160  1.5900000000000D+00  6.2574072668542D-01 -1.7292117808421D-01
   161  1.6000000000000D+00  6.0727720753321D-01 -1.7678074623467D-01
   162  1.6100000000000D+00  5.8901797076164D-01 -1.8012552935186D-01
   163  1.6200000000000D+00  5.7091229226495D-01 -1.8292541623889D-01
   164  1.6300000000000D+00  5.5290360305313D-01 -1.8514875785599D-01
   165  1.6400000000000D+00  5.3493051737581D-01 -1.8676259091952D-01
   166  1.6500000000000D+00  5.1692813316856D-01 -1.8773289692688D-01
   167  1.6600000000000D+00  4.9882796032590D-01 -1.8802469466258D-01
   168  1.6700000000000D+00  4.8055806097988D-01 -1.8760216843792D-01
   169  1.6800000000000D+00  4.6204349630083D-01 -1.8642882777976D-01
   170  1.6900000000000D+00  4.4320655367771D-01 -1.8446764429233D-01
   171  1.7000000000000D+00  4.2396706386470D-01 -1.8168119878564D-01
   172  1.7100000000000D+00  4.0424269340684D-01 -1.7803182480599D-01
   173  1.7200000000000D+00  3.8394924035051D-01 -1.7348175117303D-01
   174  1.7300000000000D+00  3.6300092698928D-01 -1.6799324221032D-01
   175  1.7400000000000D+00  3.4131068681969D-01 -1.6152873447845D-01
   176  1.7500000000000D+00  3.1879044474955D-01 -1.5405096953953D-01
   177  1.7600000000000D+00  2.9535138703026D-01 -1.4552312128651D-01
   178  1.7700000000000D+00  2.7090422104453D-01 -1.3590891779934D-01
   179  1.7800000000000D+00  2.4535942068894D-01 -1.2517275595448D-01
   180  1.7900000000000D+00  2.1862745847559D-01 -1.1327980916887D-01
   181  1.8000000000000D+00  1.9045565637429D-01 -1.0010335117709D-01
   182  1.8100000000000D+00  1.6112948977551D-01 -8.5823009492969D-02
   183  1.8200000000000D+00  1.3150687890001D-01 -7.0941916341554D-02
   184  1.8300000000000D+00  9.9319181532714D-02 -5.4195003970122D-02
   185  1.8400000000000D+00  6.0910435597491D-02 -3.3538376611470D-02
   186  1.8500000000000D+00  2.1587954512071D-02 -1.1987147887167D-02
   187  1.8600000000000D+00 -3.4495208057378D-03  1.8577711666405D-03
   188  1.8700000000000D+00 -6.4937623795166D-03  3.5702534112306D-03
   189  1.8800000000000D+00  1.1453241457286D-05 -6.2679922998388D-06
   190  1.8900000000000D+00  1.7246933260211D-03 -9.4538465936636D-04
   191  1.9000000000000D+00  5.2919034496577D-04 -2.9035160739427D-04
   192  1.9100000000000D+00 -2.0822713743949D-04  1.1299894901564D-04
   193  1.9200000000000D+00 -1.4738224450895D-04  8.0021376223180D-05
   194  1.9300000000000D+00  4.9820430300298D-07 -1.7800305743214D-07
   195  1.9400000000000D+00  6.7452698714441D-07 -2.4100126255127D-07
   196  1.9500000000000D+00  0.0000000000000D+00  0.0000000000000D+00
   197  1.9600000000000D+00  0.0000000000000D+00  0.0000000000000D+00
   198  1.9700000000000D+00  0.0000000000000D+00  0.0000000000000D+00
   199  1.9800000000000D+00  0.0000000000000D+00  0.0000000000000D+00
   200  1.9900000000000D+00  0.0000000000000D+00  0.0000000000000D+00
   201  2.0000000000000D+00  0.0000000000000D+00  0.0000000000000D+00
   202  2.0100000000000D+00  0.0000000000000D+00  0.0000000000000D+00
   203  2.0200000000000D+00  0.0000000000000D+00  0.0000000000000D+00
   204  2.0300000000000D+00  0.0000000000000D+00  0.0000000000000D+00
   205  2.0400000000000D+00  0.0000000000000D+00  0.0000000000000D+00
   206  2.0500000000000D+00  0.0000000000000D+00  0.0000000000000D+00
   207  2.0600000000000D+00  0.0000000000000D+00  0.0000000000000D+00
   208  2.0700000000000D+00  0.0000000000000D+00  0.0000000000000D+00
   209  2.0800000000000D+00  0.0000000000000D+00  0.0000000000000D+00
   210  2.0900000000000D+00  0.0000000000000D+00  0.0000000000000D+00
   211  2.1000000000000D+00  0.0000000000000D+00  0.0000000000000D+00
   212  2.1100000000000D+00  0.0000000000000D+00  0.0000000000000D+00
   213  2.1200000000000D+00  0.0000000000000D+00  0.0000000000000D+00
   214  2.1300000000000D+00  0.0000000000000D+00  0.0000000000000D+00
   215  2.1400000000000D+00  0.0000000000000D+00  0.0000000000000D+00
   216  2.1500000000000D+00  0.0000000000000D+00  0.0000000000000D+00
   217  2.1600000000000D+00  0.0000000000000D+00  0.0000000000000D+00
   218  2.1700000000000D+00  0.0000000000000D+00  0.0000000000000D+00
   219  2.1800000000000D+00  0.0000000000000D+00  0.0000000000000D+00
   220  2.1900000000000D+00  0.0000000000000D+00  0.0000000000000D+00
   221  2.2000000000000D+00  0.0000000000000D+00  0.0000000000000D+00
   222  2.2100000000000D+00  0.0000000000000D+00  0.0000000000000D+00
   223  2.2200000000000D+00  0.0000000000000D+00  0.0000000000000D+00
   224  2.2300000000000D+00  0.0000000000000D+00  0.0000000000000D+00
   225  2.2400000000000D+00  0.0000000000000D+00  0.0000000000000D+00
   226  2.2500000000000D+00  0.0000000000000D+00  0.0000000000000D+00
   227  2.2600000000000D+00  0.0000000000000D+00  0.0000000000000D+00
   228  2.2700000000000D+00  0.0000000000000D+00  0.0000000000000D+00
   229  2.2800000000000D+00  0.0000000000000D+00  0.0000000000000D+00
   230  2.2900000000000D+00  0.0000000000000D+00  0.0000000000000D+00
   231  2.3000000000000D+00  0.0000000000000D+00  0.0000000000000D+00
   232  2.3100000000000D+00  0.0000000000000D+00  0.0000000000000D+00
   233  2.3200000000000D+00  0.0000000000000D+00  0.0000000000000D+00
   234  2.3300000000000D+00  0.0000000000000D+00  0.0000000000000D+00
   235  2.3400000000000D+00  0.0000000000000D+00  0.0000000000000D+00
   236  2.3500000000000D+00  0.0000000000000D+00  0.0000000000000D+00
   237  2.3600000000000D+00  0.0000000000000D+00  0.0000000000000D+00
   238  2.3700000000000D+00  0.0000000000000D+00  0.0000000000000D+00
   239  2.3800000000000D+00  0.0000000000000D+00  0.0000000000000D+00
   240  2.3900000000000D+00  0.0000000000000D+00  0.0000000000000D+00
   241  2.4000000000000D+00  0.0000000000000D+00  0.0000000000000D+00
   242  2.4100000000000D+00  0.0000000000000D+00  0.0000000000000D+00
   243  2.4200000000000D+00  0.0000000000000D+00  0.0000000000000D+00
   244  2.4300000000000D+00  0.0000000000000D+00  0.0000000000000D+00
   245  2.4400000000000D+00  0.0000000000000D+00  0.0000000000000D+00
   246  2.4500000000000D+00  0.0000000000000D+00  0.0000000000000D+00
   247  2.4600000000000D+00  0.0000000000000D+00  0.0000000000000D+00
   248  2.4700000000000D+00  0.0000000000000D+00  0.0000000000000D+00
   249  2.4800000000000D+00  0.0000000000000D+00  0.0000000000000D+00
   250  2.4900000000000D+00  0.0000000000000D+00  0.0000000000000D+00
   251  2.5000000000000D+00  0.0000000000000D+00  0.0000000000000D+00
   252  2.5100000000000D+00  0.0000000000000D+00  0.0000000000000D+00
   253  2.5200000000000D+00  0.0000000000000D+00  0.0000000000000D+00
   254  2.5300000000000D+00  0.0000000000000D+00  0.0000000000000D+00
   255  2.5400000000000D+00  0.0000000000000D+00  0.0000000000000D+00
   256  2.5500000000000D+00  0.0000000000000D+00  0.0000000000000D+00
   257  2.5600000000000D+00  0.0000000000000D+00  0.0000000000000D+00
   258  2.5700000000000D+00  0.0000000000000D+00  0.0000000000000D+00
   259  2.5800000000000D+00  0.0000000000000D+00  0.0000000000000D+00
   260  2.5900000000000D+00  0.0000000000000D+00  0.0000000000000D+00
   261  2.6000000000000D+00  0.0000000000000D+00  0.0000000000000D+00
   262  2.6100000000000D+00  0.0000000000000D+00  0.0000000000000D+00
   263  2.6200000000000D+00  0.0000000000000D+00  0.0000000000000D+00
   264  2.6300000000000D+00  0.0000000000000D+00  0.0000000000000D+00
   265  2.6400000000000D+00  0.0000000000000D+00  0.0000000000000D+00
   266  2.6500000000000D+00  0.0000000000000D+00  0.0000000000000D+00
   267  2.6600000000000D+00  0.0000000000000D+00  0.0000000000000D+00
   268  2.6700000000000D+00  0.0000000000000D+00  0.0000000000000D+00
   269  2.6800000000000D+00  0.0000000000000D+00  0.0000000000000D+00
   270  2.6900000000000D+00  0.0000000000000D+00  0.0000000000000D+00
   271  2.7000000000000D+00  0.0000000000000D+00  0.0000000000000D+00
   272  2.7100000000000D+00  0.0000000000000D+00  0.0000000000000D+00
   273  2.7200000000000D+00  0.0000000000000D+00  0.0000000000000D+00
   274  2.7300000000000D+00  0.0000000000000D+00  0.0000000000000D+00
   275  2.7400000000000D+00  0.0000000000000D+00  0.0000000000000D+00
   276  2.7500000000000D+00  0.0000000000000D+00  0.0000000000000D+00
   277  2.7600000000000D+00  0.0000000000000D+00  0.0000000000000D+00
   278  2.7700000000000D+00  0.0000000000000D+00  0.0000000000000D+00
   279  2.7800000000000D+00  0.0000000000000D+00  0.0000000000000D+00
   280  2.7900000000000D+00  0.0000000000000D+00  0.0000000000000D+00
   281  2.8000000000000D+00  0.0000000000000D+00  0.0000000000000D+00
   282  2.8100000000000D+00  0.0000000000000D+00  0.0000000000000D+00
   283  2.8200000000000D+00  0.0000000000000D+00  0.0000000000000D+00
   284  2.8300000000000D+00  0.0000000000000D+00  0.0000000000000D+00
   285  2.8400000000000D+00  0.0000000000000D+00  0.0000000000000D+00
   286  2.8500000000000D+00  0.0000000000000D+00  0.0000000000000D+00
   287  2.8600000000000D+00  0.0000000000000D+00  0.0000000000000D+00
   288  2.8700000000000D+00  0.0000000000000D+00  0.0000000000000D+00
   289  2.8800000000000D+00  0.0000000000000D+00  0.0000000000000D+00
   290  2.8900000000000D+00  0.0000000000000D+00  0.0000000000000D+00
   291  2.9000000000000D+00  0.0000000000000D+00  0.0000000000000D+00
   292  2.9100000000000D+00  0.0000000000000D+00  0.0000000000000D+00
   293  2.9200000000000D+00  0.0000000000000D+00  0.0000000000000D+00
   294  2.9300000000000D+00  0.0000000000000D+00  0.0000000000000D+00
   295  2.9400000000000D+00  0.0000000000000D+00  0.0000000000000D+00
   296  2.9500000000000D+00  0.0000000000000D+00  0.0000000000000D+00
   297  2.9600000000000D+00  0.0000000000000D+00  0.0000000000000D+00
   298  2.9700000000000D+00  0.0000000000000D+00  0.0000000000000D+00
   299  2.9800000000000D+00  0.0000000000000D+00  0.0000000000000D+00
   300  2.9900000000000D+00  0.0000000000000D+00  0.0000000000000D+00
   301  3.0000000000000D+00  0.0000000000000D+00  0.0000000000000D+00
   302  3.0100000000000D+00  0.0000000000000D+00  0.0000000000000D+00
   303  3.0200000000000D+00  0.0000000000000D+00  0.0000000000000D+00
   304  3.0300000000000D+00  0.0000000000000D+00  0.0000000000000D+00
   305  3.0400000000000D+00  0.0000000000000D+00  0.0000000000000D+00
   306  3.0500000000000D+00  0.0000000000000D+00  0.0000000000000D+00
   307  3.0600000000000D+00  0.0000000000000D+00  0.0000000000000D+00
   308  3.0700000000000D+00  0.0000000000000D+00  0.0000000000000D+00
   309  3.0800000000000D+00  0.0000000000000D+00  0.0000000000000D+00
   310  3.0900000000000D+00  0.0000000000000D+00  0.0000000000000D+00
   311  3.1000000000000D+00  0.0000000000000D+00  0.0000000000000D+00
   312  3.1100000000000D+00  0.0000000000000D+00  0.0000000000000D+00
   313  3.1200000000000D+00  0.0000000000000D+00  0.0000000000000D+00
   314  3.1300000000000D+00  0.0000000000000D+00  0.0000000000000D+00
   315  3.1400000000000D+00  0.0000000000000D+00  0.0000000000000D+00
   316  3.1500000000000D+00  0.0000000000000D+00  0.0000000000000D+00
   317  3.1600000000000D+00  0.0000000000000D+00  0.0000000000000D+00
   318  3.1700000000000D+00  0.0000000000000D+00  0.0000000000000D+00
   319  3.1800000000000D+00  0.0000000000000D+00  0.0000000000000D+00
   320  3.1900000000000D+00  0.0000000000000D+00  0.0000000000000D+00
   321  3.2000000000000D+00  0.0000000000000D+00  0.0000000000000D+00
   322  3.2100000000000D+00  0.0000000000000D+00  0.0000000000000D+00
   323  3.2200000000000D+00  0.0000000000000D+00  0.0000000000000D+00
   324  3.2300000000000D+00  0.0000000000000D+00  0.0000000000000D+00
   325  3.2400000000000D+00  0.0000000000000D+00  0.0000000000000D+00
   326  3.2500000000000D+00  0.0000000000000D+00  0.0000000000000D+00
   327  3.2600000000000D+00  0.0000000000000D+00  0.0000000000000D+00
   328  3.2700000000000D+00  0.0000000000000D+00  0.0000000000000D+00
   329  3.2800000000000D+00  0.0000000000000D+00  0.0000000000000D+00
   330  3.2900000000000D+00  0.0000000000000D+00  0.0000000000000D+00
   331  3.3000000000000D+00  0.0000000000000D+00  0.0000000000000D+00
   332  3.3100000000000D+00  0.0000000000000D+00  0.0000000000000D+00
   333  3.3200000000000D+00  0.0000000000000D+00  0.0000000000000D+00
   334  3.3300000000000D+00  0.0000000000000D+00  0.0000000000000D+00
   335  3.3400000000000D+00  0.0000000000000D+00  0.0000000000000D+00
   336  3.3500000000000D+00  0.0000000000000D+00  0.0000000000000D+00
   337  3.3600000000000D+00  0.0000000000000D+00  0.0000000000000D+00
   338  3.3700000000000D+00  0.0000000000000D+00  0.0000000000000D+00
   339  3.3800000000000D+00  0.0000000000000D+00  0.0000000000000D+00
   340  3.3900000000000D+00  0.0000000000000D+00  0.0000000000000D+00
   341  3.4000000000000D+00  0.0000000000000D+00  0.0000000000000D+00
   342  3.4100000000000D+00  0.0000000000000D+00  0.0000000000000D+00
   343  3.4200000000000D+00  0.0000000000000D+00  0.0000000000000D+00
   344  3.4300000000000D+00  0.0000000000000D+00  0.0000000000000D+00
   345  3.4400000000000D+00  0.0000000000000D+00  0.0000000000000D+00
   346  3.4500000000000D+00  0.0000000000000D+00  0.0000000000000D+00
   347  3.4600000000000D+00  0.0000000000000D+00  0.0000000000000D+00
   348  3.4700000000000D+00  0.0000000000000D+00  0.0000000000000D+00
   349  3.4800000000000D+00  0.0000000000000D+00  0.0000000000000D+00
   350  3.4900000000000D+00  0.0000000000000D+00  0.0000000000000D+00
   351  3.5000000000000D+00  0.0000000000000D+00  0.0000000000000D+00
   352  3.5100000000000D+00  0.0000000000000D+00  0.0000000000000D+00
   353  3.5200000000000D+00  0.0000000000000D+00  0.0000000000000D+00
   354  3.5300000000000D+00  0.0000000000000D+00  0.0000000000000D+00
   355  3.5400000000000D+00  0.0000000000000D+00  0.0000000000000D+00
   356  3.5500000000000D+00  0.0000000000000D+00  0.0000000000000D+00
   357  3.5600000000000D+00  0.0000000000000D+00  0.0000000000000D+00
   358  3.5700000000000D+00  0.0000000000000D+00  0.0000000000000D+00
   359  3.5800000000000D+00  0.0000000000000D+00  0.0000000000000D+00
   360  3.5900000000000D+00  0.0000000000000D+00  0.0000000000000D+00
   361  3.6000000000000D+00  0.0000000000000D+00  0.0000000000000D+00
   362  3.6100000000000D+00  0.0000000000000D+00  0.0000000000000D+00
   363  3.6200000000000D+00  0.0000000000000D+00  0.0000000000000D+00
   364  3.6300000000000D+00  0.0000000000000D+00  0.0000000000000D+00
   365  3.6400000000000D+00  0.0000000000000D+00  0.0000000000000D+00
   366  3.6500000000000D+00  0.0000000000000D+00  0.0000000000000D+00
   367  3.6600000000000D+00  0.0000000000000D+00  0.0000000000000D+00
   368  3.6700000000000D+00  0.0000000000000D+00  0.0000000000000D+00
   369  3.6800000000000D+00  0.0000000000000D+00  0.0000000000000D+00
   370  3.6900000000000D+00  0.0000000000000D+00  0.0000000000000D+00
   371  3.7000000000000D+00  0.0000000000000D+00  0.0000000000000D+00
   372  3.7100000000000D+00  0.0000000000000D+00  0.0000000000000D+00
   373  3.7200000000000D+00  0.0000000000000D+00  0.0000000000000D+00
   374  3.7300000000000D+00  0.0000000000000D+00  0.0000000000000D+00
   375  3.7400000000000D+00  0.0000000000000D+00  0.0000000000000D+00
   376  3.7500000000000D+00  0.0000000000000D+00  0.0000000000000D+00
   377  3.7600000000000D+00  0.0000000000000D+00  0.0000000000000D+00
   378  3.7700000000000D+00  0.0000000000000D+00  0.0000000000000D+00
   379  3.7800000000000D+00  0.0000000000000D+00  0.0000000000000D+00
   380  3.7900000000000D+00  0.0000000000000D+00  0.0000000000000D+00
   381  3.8000000000000D+00  0.0000000000000D+00  0.0000000000000D+00
   382  3.8100000000000D+00  0.0000000000000D+00  0.0000000000000D+00
   383  3.8200000000000D+00  0.0000000000000D+00  0.0000000000000D+00
   384  3.8300000000000D+00  0.0000000000000D+00  0.0000000000000D+00
   385  3.8400000000000D+00  0.0000000000000D+00  0.0000000000000D+00
   386  3.8500000000000D+00  0.0000000000000D+00  0.0000000000000D+00
   387  3.8600000000000D+00  0.0000000000000D+00  0.0000000000000D+00
   388  3.8700000000000D+00  0.0000000000000D+00  0.0000000000000D+00
   389  3.8800000000000D+00  0.0000000000000D+00  0.0000000000000D+00
   390  3.8900000000000D+00  0.0000000000000D+00  0.0000000000000D+00
   391  3.9000000000000D+00  0.0000000000000D+00  0.0000000000000D+00
   392  3.9100000000000D+00  0.0000000000000D+00  0.0000000000000D+00
   393  3.9200000000000D+00  0.0000000000000D+00  0.0000000000000D+00
   394  3.9300000000000D+00  0.0000000000000D+00  0.0000000000000D+00
   395  3.9400000000000D+00  0.0000000000000D+00  0.0000000000000D+00
   396  3.9500000000000D+00  0.0000000000000D+00  0.0000000000000D+00
   397  3.9600000000000D+00  0.0000000000000D+00  0.0000000000000D+00
   398  3.9700000000000D+00  0.0000000000000D+00  0.0000000000000D+00
   399  3.9800000000000D+00  0.0000000000000D+00  0.0000000000000D+00
   400  3.9900000000000D+00  0.0000000000000D+00  0.0000000000000D+00
   401  4.0000000000000D+00  0.0000000000000D+00  0.0000000000000D+00
   402  4.0100000000000D+00  0.0000000000000D+00  0.0000000000000D+00
   403  4.0200000000000D+00  0.0000000000000D+00  0.0000000000000D+00
   404  4.0300000000000D+00  0.0000000000000D+00  0.0000000000000D+00
   405  4.0400000000000D+00  0.0000000000000D+00  0.0000000000000D+00
   406  4.0500000000000D+00  0.0000000000000D+00  0.0000000000000D+00
   407  4.0600000000000D+00  0.0000000000000D+00  0.0000000000000D+00
   408  4.0700000000000D+00  0.0000000000000D+00  0.0000000000000D+00
   409  4.0800000000000D+00  0.0000000000000D+00  0.0000000000000D+00
   410  4.0900000000000D+00  0.0000000000000D+00  0.0000000000000D+00
   411  4.1000000000000D+00  0.0000000000000D+00  0.0000000000000D+00
   412  4.1100000000000D+00  0.0000000000000D+00  0.0000000000000D+00
   413  4.1200000000000D+00  0.0000000000000D+00  0.0000000000000D+00
   414  4.1300000000000D+00  0.0000000000000D+00  0.0000000000000D+00
   415  4.1400000000000D+00  0.0000000000000D+00  0.0000000000000D+00
   416  4.1500000000000D+00  0.0000000000000D+00  0.0000000000000D+00
   417  4.1600000000000D+00  0.0000000000000D+00  0.0000000000000D+00
   418  4.1700000000000D+00  0.0000000000000D+00  0.0000000000000D+00
   419  4.1800000000000D+00  0.0000000000000D+00  0.0000000000000D+00
   420  4.1900000000000D+00  0.0000000000000D+00  0.0000000000000D+00
   421  4.2000000000000D+00  0.0000000000000D+00  0.0000000000000D+00
   422  4.2100000000000D+00  0.0000000000000D+00  0.0000000000000D+00