Ni    ONCVPSP  r_core=  1.26  1.35  1.66
28.0000     18.0000      151103    zatom,zion,pspd
8      11   2     4   600     0    pspcod,pspxc,lmax,lloc,mmax,r2well
5.99000000  3.00000000  0.00000000    rchrg fchrg qchrg
2     2     2     0     0    nproj
1                 extension_switch
0                         6.0650379145192D+00 -2.2962678091185D-01
1  0.0000000000000D+00 -2.7325557372393D-09 -2.3183555908357D-08
2  1.0000000000000D-02  1.0397690527880D-01  5.5452728548401D-02
3  2.0000000000000D-02  2.0753030705449D-01  1.1008148735290D-01
4  3.0000000000000D-02  3.1023983038324D-01  1.6307836320781D-01
5  4.0000000000000D-02  4.1169131615273D-01  2.1366724128537D-01
6  5.0000000000000D-02  5.1147982649635D-01  2.6111892365834D-01
7  6.0000000000000D-02  6.0921252919644D-01  3.0476532793166D-01
8  7.0000000000000D-02  7.0451142401900D-01  3.4401248719125D-01
9  8.0000000000000D-02  7.9701587665431D-01  3.7835209566181D-01
10  9.0000000000000D-02  8.8638492925810D-01  4.0737137261137D-01
11  1.0000000000000D-01  9.7229936043301D-01  4.3076104961665D-01
12  1.1000000000000D-01  1.0544634717907D+00  4.4832132269212D-01
13  1.2000000000000D-01  1.1326065829098D+00  4.5996565029653D-01
14  1.3000000000000D-01  1.2064842214697D+00  4.6572232011381D-01
15  1.4000000000000D-01  1.2758790005002D+00  4.6573375096188D-01
16  1.5000000000000D-01  1.3406011799495D+00  4.6025354038572D-01
17  1.6000000000000D-01  1.4004889150401D+00  4.4964131259372D-01
18  1.7000000000000D-01  1.4554081990526D+00  4.3435546455443D-01
19  1.8000000000000D-01  1.5052525131622D+00  4.1494394945233D-01
20  1.9000000000000D-01  1.5499422006550D+00  3.9203327550892D-01
21  2.0000000000000D-01  1.5894235871813D+00  3.6631593365410D-01
22  2.1000000000000D-01  1.6236678725922D+00  3.3853649898988D-01
23  2.2000000000000D-01  1.6526698232672D+00  3.0947667780542D-01
24  2.3000000000000D-01  1.6764462966236D+00  2.7993959354377D-01
25  2.4000000000000D-01  1.6950346316512D+00  2.5073362114926D-01
26  2.5000000000000D-01  1.7084909407895D+00  2.2265608930710D-01
27  2.6000000000000D-01  1.7168883392500D+00  1.9647717400047D-01
28  2.7000000000000D-01  1.7203151479525D+00  1.7292430445092D-01
29  2.8000000000000D-01  1.7188731056067D+00  1.5266739388731D-01
30  2.9000000000000D-01  1.7126756241348D+00  1.3630519283951D-01
31  3.0000000000000D-01  1.7018461196271D+00  1.2435304202721D-01
32  3.1000000000000D-01  1.6865164483948D+00  1.1723227577224D-01
33  3.2000000000000D-01  1.6668254744796D+00  1.1526149567928D-01
34  3.3000000000000D-01  1.6429177912680D+00  1.1864989867314D-01
35  3.4000000000000D-01  1.6149426157078D+00  1.2749280400985D-01
36  3.5000000000000D-01  1.5830528691298D+00  1.4176948133476D-01
37  3.6000000000000D-01  1.5474044539090D+00  1.6134333703691D-01
38  3.7000000000000D-01  1.5081557302799D+00  1.8596446990593D-01
39  3.8000000000000D-01  1.4654671926214D+00  2.1527456030657D-01
40  3.9000000000000D-01  1.4195013395732D+00  2.4881401066068D-01
41  4.0000000000000D-01  1.3704227275215D+00  2.8603120985585D-01
42  4.1000000000000D-01  1.3183981924067D+00  3.2629375117519D-01
43  4.2000000000000D-01  1.2635972205529D+00  3.6890139331059D-01
44  4.3000000000000D-01  1.2061924453800D+00  4.1310051778134D-01
45  4.4000000000000D-01  1.1463602435307D+00  4.5809980436366D-01
46  4.5000000000000D-01  1.0842814011794D+00  5.0308681959784D-01
47  4.6000000000000D-01  1.0201418191699D+00  5.4724519263492D-01
48  4.7000000000000D-01  9.5413322418457D-01  5.8977203806872D-01
49  4.8000000000000D-01  8.8645385242743D-01  6.2989527730665D-01
50  4.9000000000000D-01  8.1730907232587D-01  6.6689050868231D-01
51  5.0000000000000D-01  7.4691191352395D-01  7.0009708199308D-01
52  5.1000000000000D-01  6.7548347095339D-01  7.2893304540183D-01
53  5.2000000000000D-01  6.0325315499853D-01  7.5290865151812D-01
54  5.3000000000000D-01  5.3045876168588D-01  7.7163813466339D-01
55  5.4000000000000D-01  4.5734634037040D-01  7.8484950236106D-01
56  5.5000000000000D-01  3.8416984050249D-01  7.9239212050594D-01
57  5.6000000000000D-01  3.1119052366132D-01  7.9424191274986D-01
58  5.7000000000000D-01  2.3867613203619D-01  7.9050403958663D-01
59  5.8000000000000D-01  1.6689980985884D-01  7.8141297083464D-01
60  5.9000000000000D-01  9.6138779783930D-02  7.6732991534986D-01
61  6.0000000000000D-01  2.6672781839627D-02  7.4873762353502D-01
62  6.1000000000000D-01 -4.1217711864468D-02  7.2623262981447D-01
63  6.2000000000000D-01 -1.0725348801723D-01  7.0051505344614D-01
64  6.3000000000000D-01 -1.7115876471841D-01  6.7237612529605D-01
65  6.4000000000000D-01 -2.3266351712320D-01  6.4268365473706D-01
66  6.5000000000000D-01 -2.9150592301223D-01  6.1236569393013D-01
67  6.6000000000000D-01 -3.4743489135829D-01  5.8239269504354D-01
68  6.7000000000000D-01 -4.0021263376164D-01  5.5375848915248D-01
69  6.8000000000000D-01 -4.4961723614746D-01  5.2746044272325D-01
70  6.9000000000000D-01 -4.9544518643047D-01  5.0447916807347D-01
71  7.0000000000000D-01 -5.3751381298180D-01  4.8575817769289D-01
72  7.1000000000000D-01 -5.7566358872875D-01  4.7218387843576D-01
73  7.2000000000000D-01 -6.0976025659215D-01  4.6456630006707D-01
74  7.3000000000000D-01 -6.3969673371368D-01  4.6362094354096D-01
75  7.4000000000000D-01 -6.6539475454231D-01  4.6995211765811D-01
76  7.5000000000000D-01 -6.8680621625973D-01  4.8403810894865D-01
77  7.6000000000000D-01 -7.0391419425757D-01  5.0621849855311D-01
78  7.7000000000000D-01 -7.1673360026963D-01  5.3668390276425D-01
79  7.8000000000000D-01 -7.2531146130337D-01  5.7546837086094D-01
80  7.9000000000000D-01 -7.2972680357544D-01  6.2244462593279D-01
81  8.0000000000000D-01 -7.3009013213958D-01  6.7732228236993D-01
82  8.1000000000000D-01 -7.2654250368367D-01  7.3964911854345D-01
83  8.2000000000000D-01 -7.1925419694226D-01  8.0881542596070D-01
84  8.3000000000000D-01 -7.0842299219250D-01  8.8406139792738D-01
85  8.4000000000000D-01 -6.9427207824292D-01  9.6448746259397D-01
86  8.5000000000000D-01 -6.7704761205359D-01  1.0490674083304D+00
87  8.6000000000000D-01 -6.5701596251358D-01  1.1366640947619D+00
88  8.7000000000000D-01 -6.3446067582085D-01  1.2260474915862D+00
89  8.8000000000000D-01 -6.0967920524491D-01  1.3159147404885D+00
90  8.9000000000000D-01 -5.8297945269341D-01  1.4049118940208D+00
91  9.0000000000000D-01 -5.5467617335610D-01  1.4916569500521D+00
92  9.1000000000000D-01 -5.2508729767944D-01  1.5747637720679D+00
93  9.2000000000000D-01 -4.9453022696624D-01  1.6528664647950D+00
94  9.3000000000000D-01 -4.6331815994779D-01  1.7246437618221D+00
95  9.4000000000000D-01 -4.3175650770856D-01  1.7888429773900D+00
96  9.5000000000000D-01 -4.0013945334377D-01  1.8443030784891D+00
97  9.6000000000000D-01 -3.6874671070466D-01  1.8899764458295D+00
98  9.7000000000000D-01 -3.3784053356188D-01  1.9249489129553D+00
99  9.8000000000000D-01 -3.0766302255751D-01  1.9484577013009D+00
100  9.9000000000000D-01 -2.7843377232221D-01  1.9599069061029D+00
101  1.0000000000000D+00 -2.5034789576098D-01  1.9588802287200D+00
102  1.0100000000000D+00 -2.2357445574339D-01  1.9451507028767D+00
103  1.0200000000000D+00 -1.9825532770670D-01  1.9186872145902D+00
104  1.0300000000000D+00 -1.7450450912066D-01  1.8796576746901D+00
105  1.0400000000000D+00 -1.5240788401916D-01  1.8284287638591D+00
106  1.0500000000000D+00 -1.3202344250057D-01  1.7655622359755D+00
107  1.0600000000000D+00 -1.1338194775747D-01  1.6918078239952D+00
108  1.0700000000000D+00 -9.6488034359756D-02  1.6080928633121D+00
109  1.0800000000000D+00 -8.1321714323288D-02  1.5155088053765D+00
110  1.0900000000000D+00 -6.7840260067419D-02  1.4152948542464D+00
111  1.1000000000000D+00 -5.5980426185186D-02  1.3088190169415D+00
112  1.1100000000000D+00 -4.5660966788291D-02  1.1975569003801D+00
113  1.1200000000000D+00 -3.6785398370682D-02  1.0830686433764D+00
114  1.1300000000000D+00 -2.9244954668311D-02  9.6697440070506D-01
115  1.1400000000000D+00 -2.2921675975576D-02  8.5092882950164D-01
116  1.1500000000000D+00 -1.7691573179839D-02  7.3659504662142D-01
117  1.1600000000000D+00 -1.3427804717971D-02  6.2561854322765D-01
118  1.1700000000000D+00 -1.0003803626741D-02  5.1960155762768D-01
119  1.1800000000000D+00 -7.2962935353688D-03  4.2007838529628D-01
120  1.1900000000000D+00 -5.1881817978451D-03  3.2849150587240D-01
121  1.2000000000000D+00 -3.5710657495139D-03  2.4617160469277D-01
122  1.2100000000000D+00 -2.3476962922346D-03  1.7431684644516D-01
123  1.2200000000000D+00 -1.4355297616681D-03  1.1397820878691D-01
124  1.2300000000000D+00 -7.6905009869555D-04  6.5941191722026D-02
125  1.2400000000000D+00 -3.0241641909836D-04  3.0624211383258D-02
126  1.2500000000000D+00 -1.5877610198520D-05  9.5044721474957D-03
127  1.2600000000000D+00  9.5390333852169D-05  1.0932186811445D-03
128  1.2700000000000D+00  4.8830360710325D-05 -3.4646055679251D-04
129  1.2800000000000D+00 -1.1091626055439D-05  1.2279665486992D-04
130  1.2900000000000D+00 -3.5761105384830D-06  4.7472481488308D-05
131  1.3000000000000D+00  2.8156581464105D-06 -2.5743838420003D-05
132  1.3100000000000D+00 -1.6784099427190D-07 -1.1876257541621D-06
133  1.3200000000000D+00 -1.3866291924556D-07 -9.8116467170447D-07
134  1.3300000000000D+00  0.0000000000000D+00  0.0000000000000D+00
135  1.3400000000000D+00  0.0000000000000D+00  0.0000000000000D+00
136  1.3500000000000D+00  0.0000000000000D+00  0.0000000000000D+00
137  1.3600000000000D+00  0.0000000000000D+00  0.0000000000000D+00
138  1.3700000000000D+00  0.0000000000000D+00  0.0000000000000D+00
139  1.3800000000000D+00  0.0000000000000D+00  0.0000000000000D+00
140  1.3900000000000D+00  0.0000000000000D+00  0.0000000000000D+00
141  1.4000000000000D+00  0.0000000000000D+00  0.0000000000000D+00
142  1.4100000000000D+00  0.0000000000000D+00  0.0000000000000D+00
143  1.4200000000000D+00  0.0000000000000D+00  0.0000000000000D+00
144  1.4300000000000D+00  0.0000000000000D+00  0.0000000000000D+00
145  1.4400000000000D+00  0.0000000000000D+00  0.0000000000000D+00
146  1.4500000000000D+00  0.0000000000000D+00  0.0000000000000D+00
147  1.4600000000000D+00  0.0000000000000D+00  0.0000000000000D+00
148  1.4700000000000D+00  0.0000000000000D+00  0.0000000000000D+00
149  1.4800000000000D+00  0.0000000000000D+00  0.0000000000000D+00
150  1.4900000000000D+00  0.0000000000000D+00  0.0000000000000D+00
151  1.5000000000000D+00  0.0000000000000D+00  0.0000000000000D+00
152  1.5100000000000D+00  0.0000000000000D+00  0.0000000000000D+00
153  1.5200000000000D+00  0.0000000000000D+00  0.0000000000000D+00
154  1.5300000000000D+00  0.0000000000000D+00  0.0000000000000D+00
155  1.5400000000000D+00  0.0000000000000D+00  0.0000000000000D+00
156  1.5500000000000D+00  0.0000000000000D+00  0.0000000000000D+00
157  1.5600000000000D+00  0.0000000000000D+00  0.0000000000000D+00
158  1.5700000000000D+00  0.0000000000000D+00  0.0000000000000D+00
159  1.5800000000000D+00  0.0000000000000D+00  0.0000000000000D+00
160  1.5900000000000D+00  0.0000000000000D+00  0.0000000000000D+00
161  1.6000000000000D+00  0.0000000000000D+00  0.0000000000000D+00
162  1.6100000000000D+00  0.0000000000000D+00  0.0000000000000D+00
163  1.6200000000000D+00  0.0000000000000D+00  0.0000000000000D+00
164  1.6300000000000D+00  0.0000000000000D+00  0.0000000000000D+00
165  1.6400000000000D+00  0.0000000000000D+00  0.0000000000000D+00
166  1.6500000000000D+00  0.0000000000000D+00  0.0000000000000D+00
167  1.6600000000000D+00  0.0000000000000D+00  0.0000000000000D+00
168  1.6700000000000D+00  0.0000000000000D+00  0.0000000000000D+00
169  1.6800000000000D+00  0.0000000000000D+00  0.0000000000000D+00
170  1.6900000000000D+00  0.0000000000000D+00  0.0000000000000D+00
171  1.7000000000000D+00  0.0000000000000D+00  0.0000000000000D+00
172  1.7100000000000D+00  0.0000000000000D+00  0.0000000000000D+00
173  1.7200000000000D+00  0.0000000000000D+00  0.0000000000000D+00
174  1.7300000000000D+00  0.0000000000000D+00  0.0000000000000D+00
175  1.7400000000000D+00  0.0000000000000D+00  0.0000000000000D+00
176  1.7500000000000D+00  0.0000000000000D+00  0.0000000000000D+00
177  1.7600000000000D+00  0.0000000000000D+00  0.0000000000000D+00
178  1.7700000000000D+00  0.0000000000000D+00  0.0000000000000D+00
179  1.7800000000000D+00  0.0000000000000D+00  0.0000000000000D+00
180  1.7900000000000D+00  0.0000000000000D+00  0.0000000000000D+00
181  1.8000000000000D+00  0.0000000000000D+00  0.0000000000000D+00
182  1.8100000000000D+00  0.0000000000000D+00  0.0000000000000D+00
183  1.8200000000000D+00  0.0000000000000D+00  0.0000000000000D+00
184  1.8300000000000D+00  0.0000000000000D+00  0.0000000000000D+00
185  1.8400000000000D+00  0.0000000000000D+00  0.0000000000000D+00
186  1.8500000000000D+00  0.0000000000000D+00  0.0000000000000D+00
187  1.8600000000000D+00  0.0000000000000D+00  0.0000000000000D+00
188  1.8700000000000D+00  0.0000000000000D+00  0.0000000000000D+00
189  1.8800000000000D+00  0.0000000000000D+00  0.0000000000000D+00
190  1.8900000000000D+00  0.0000000000000D+00  0.0000000000000D+00
191  1.9000000000000D+00  0.0000000000000D+00  0.0000000000000D+00
192  1.9100000000000D+00  0.0000000000000D+00  0.0000000000000D+00
193  1.9200000000000D+00  0.0000000000000D+00  0.0000000000000D+00
194  1.9300000000000D+00  0.0000000000000D+00  0.0000000000000D+00
195  1.9400000000000D+00  0.0000000000000D+00  0.0000000000000D+00
196  1.9500000000000D+00  0.0000000000000D+00  0.0000000000000D+00
197  1.9600000000000D+00  0.0000000000000D+00  0.0000000000000D+00
198  1.9700000000000D+00  0.0000000000000D+00  0.0000000000000D+00
199  1.9800000000000D+00  0.0000000000000D+00  0.0000000000000D+00
200  1.9900000000000D+00  0.0000000000000D+00  0.0000000000000D+00
201  2.0000000000000D+00  0.0000000000000D+00  0.0000000000000D+00
202  2.0100000000000D+00  0.0000000000000D+00  0.0000000000000D+00
203  2.0200000000000D+00  0.0000000000000D+00  0.0000000000000D+00
204  2.0300000000000D+00  0.0000000000000D+00  0.0000000000000D+00
205  2.0400000000000D+00  0.0000000000000D+00  0.0000000000000D+00
206  2.0500000000000D+00  0.0000000000000D+00  0.0000000000000D+00
207  2.0600000000000D+00  0.0000000000000D+00  0.0000000000000D+00
208  2.0700000000000D+00  0.0000000000000D+00  0.0000000000000D+00
209  2.0800000000000D+00  0.0000000000000D+00  0.0000000000000D+00
210  2.0900000000000D+00  0.0000000000000D+00  0.0000000000000D+00
211  2.1000000000000D+00  0.0000000000000D+00  0.0000000000000D+00
212  2.1100000000000D+00  0.0000000000000D+00  0.0000000000000D+00
213  2.1200000000000D+00  0.0000000000000D+00  0.0000000000000D+00
214  2.1300000000000D+00  0.0000000000000D+00  0.0000000000000D+00
215  2.1400000000000D+00  0.0000000000000D+00  0.0000000000000D+00
216  2.1500000000000D+00  0.0000000000000D+00  0.0000000000000D+00
217  2.1600000000000D+00  0.0000000000000D+00  0.0000000000000D+00
218  2.1700000000000D+00  0.0000000000000D+00  0.0000000000000D+00
219  2.1800000000000D+00  0.0000000000000D+00  0.0000000000000D+00
220  2.1900000000000D+00  0.0000000000000D+00  0.0000000000000D+00
221  2.2000000000000D+00  0.0000000000000D+00  0.0000000000000D+00
222  2.2100000000000D+00  0.0000000000000D+00  0.0000000000000D+00
223  2.2200000000000D+00  0.0000000000000D+00  0.0000000000000D+00
224  2.2300000000000D+00  0.0000000000000D+00  0.0000000000000D+00
225  2.2400000000000D+00  0.0000000000000D+00  0.0000000000000D+00
226  2.2500000000000D+00  0.0000000000000D+00  0.0000000000000D+00
227  2.2600000000000D+00  0.0000000000000D+00  0.0000000000000D+00
228  2.2700000000000D+00  0.0000000000000D+00  0.0000000000000D+00
229  2.2800000000000D+00  0.0000000000000D+00  0.0000000000000D+00
230  2.2900000000000D+00  0.0000000000000D+00  0.0000000000000D+00
231  2.3000000000000D+00  0.0000000000000D+00  0.0000000000000D+00
232  2.3100000000000D+00  0.0000000000000D+00  0.0000000000000D+00
233  2.3200000000000D+00  0.0000000000000D+00  0.0000000000000D+00
234  2.3300000000000D+00  0.0000000000000D+00  0.0000000000000D+00
235  2.3400000000000D+00  0.0000000000000D+00  0.0000000000000D+00
236  2.3500000000000D+00  0.0000000000000D+00  0.0000000000000D+00
237  2.3600000000000D+00  0.0000000000000D+00  0.0000000000000D+00
238  2.3700000000000D+00  0.0000000000000D+00  0.0000000000000D+00
239  2.3800000000000D+00  0.0000000000000D+00  0.0000000000000D+00
240  2.3900000000000D+00  0.0000000000000D+00  0.0000000000000D+00
241  2.4000000000000D+00  0.0000000000000D+00  0.0000000000000D+00
242  2.4100000000000D+00  0.0000000000000D+00  0.0000000000000D+00
243  2.4200000000000D+00  0.0000000000000D+00  0.0000000000000D+00
244  2.4300000000000D+00  0.0000000000000D+00  0.0000000000000D+00
245  2.4400000000000D+00  0.0000000000000D+00  0.0000000000000D+00
246  2.4500000000000D+00  0.0000000000000D+00  0.0000000000000D+00
247  2.4600000000000D+00  0.0000000000000D+00  0.0000000000000D+00
248  2.4700000000000D+00  0.0000000000000D+00  0.0000000000000D+00
249  2.4800000000000D+00  0.0000000000000D+00  0.0000000000000D+00
250  2.4900000000000D+00  0.0000000000000D+00  0.0000000000000D+00
251  2.5000000000000D+00  0.0000000000000D+00  0.0000000000000D+00
252  2.5100000000000D+00  0.0000000000000D+00  0.0000000000000D+00
253  2.5200000000000D+00  0.0000000000000D+00  0.0000000000000D+00
254  2.5300000000000D+00  0.0000000000000D+00  0.0000000000000D+00
255  2.5400000000000D+00  0.0000000000000D+00  0.0000000000000D+00
256  2.5500000000000D+00  0.0000000000000D+00  0.0000000000000D+00
257  2.5600000000000D+00  0.0000000000000D+00  0.0000000000000D+00
258  2.5700000000000D+00  0.0000000000000D+00  0.0000000000000D+00
259  2.5800000000000D+00  0.0000000000000D+00  0.0000000000000D+00
260  2.5900000000000D+00  0.0000000000000D+00  0.0000000000000D+00
261  2.6000000000000D+00  0.0000000000000D+00  0.0000000000000D+00
262  2.6100000000000D+00  0.0000000000000D+00  0.0000000000000D+00
263  2.6200000000000D+00  0.0000000000000D+00  0.0000000000000D+00
264  2.6300000000000D+00  0.0000000000000D+00  0.0000000000000D+00
265  2.6400000000000D+00  0.0000000000000D+00  0.0000000000000D+00
266  2.6500000000000D+00  0.0000000000000D+00  0.0000000000000D+00
267  2.6600000000000D+00  0.0000000000000D+00  0.0000000000000D+00
268  2.6700000000000D+00  0.0000000000000D+00  0.0000000000000D+00
269  2.6800000000000D+00  0.0000000000000D+00  0.0000000000000D+00
270  2.6900000000000D+00  0.0000000000000D+00  0.0000000000000D+00
271  2.7000000000000D+00  0.0000000000000D+00  0.0000000000000D+00
272  2.7100000000000D+00  0.0000000000000D+00  0.0000000000000D+00
273  2.7200000000000D+00  0.0000000000000D+00  0.0000000000000D+00
274  2.7300000000000D+00  0.0000000000000D+00  0.0000000000000D+00
275  2.7400000000000D+00  0.0000000000000D+00  0.0000000000000D+00
276  2.7500000000000D+00  0.0000000000000D+00  0.0000000000000D+00
277  2.7600000000000D+00  0.0000000000000D+00  0.0000000000000D+00
278  2.7700000000000D+00  0.0000000000000D+00  0.0000000000000D+00
279  2.7800000000000D+00  0.0000000000000D+00  0.0000000000000D+00
280  2.7900000000000D+00  0.0000000000000D+00  0.0000000000000D+00
281  2.8000000000000D+00  0.0000000000000D+00  0.0000000000000D+00
282  2.8100000000000D+00  0.0000000000000D+00  0.0000000000000D+00
283  2.8200000000000D+00  0.0000000000000D+00  0.0000000000000D+00
284  2.8300000000000D+00  0.0000000000000D+00  0.0000000000000D+00
285  2.8400000000000D+00  0.0000000000000D+00  0.0000000000000D+00
286  2.8500000000000D+00  0.0000000000000D+00  0.0000000000000D+00
287  2.8600000000000D+00  0.0000000000000D+00  0.0000000000000D+00
288  2.8700000000000D+00  0.0000000000000D+00  0.0000000000000D+00
289  2.8800000000000D+00  0.0000000000000D+00  0.0000000000000D+00
290  2.8900000000000D+00  0.0000000000000D+00  0.0000000000000D+00
291  2.9000000000000D+00  0.0000000000000D+00  0.0000000000000D+00
292  2.9100000000000D+00  0.0000000000000D+00  0.0000000000000D+00
293  2.9200000000000D+00  0.0000000000000D+00  0.0000000000000D+00
294  2.9300000000000D+00  0.0000000000000D+00  0.0000000000000D+00
295  2.9400000000000D+00  0.0000000000000D+00  0.0000000000000D+00
296  2.9500000000000D+00  0.0000000000000D+00  0.0000000000000D+00
297  2.9600000000000D+00  0.0000000000000D+00  0.0000000000000D+00
298  2.9700000000000D+00  0.0000000000000D+00  0.0000000000000D+00
299  2.9800000000000D+00  0.0000000000000D+00  0.0000000000000D+00
300  2.9900000000000D+00  0.0000000000000D+00  0.0000000000000D+00
301  3.0000000000000D+00  0.0000000000000D+00  0.0000000000000D+00
302  3.0100000000000D+00  0.0000000000000D+00  0.0000000000000D+00
303  3.0200000000000D+00  0.0000000000000D+00  0.0000000000000D+00
304  3.0300000000000D+00  0.0000000000000D+00  0.0000000000000D+00
305  3.0400000000000D+00  0.0000000000000D+00  0.0000000000000D+00
306  3.0500000000000D+00  0.0000000000000D+00  0.0000000000000D+00
307  3.0600000000000D+00  0.0000000000000D+00  0.0000000000000D+00
308  3.0700000000000D+00  0.0000000000000D+00  0.0000000000000D+00
309  3.0800000000000D+00  0.0000000000000D+00  0.0000000000000D+00
310  3.0900000000000D+00  0.0000000000000D+00  0.0000000000000D+00
311  3.1000000000000D+00  0.0000000000000D+00  0.0000000000000D+00
312  3.1100000000000D+00  0.0000000000000D+00  0.0000000000000D+00
313  3.1200000000000D+00  0.0000000000000D+00  0.0000000000000D+00
314  3.1300000000000D+00  0.0000000000000D+00  0.0000000000000D+00
315  3.1400000000000D+00  0.0000000000000D+00  0.0000000000000D+00
316  3.1500000000000D+00  0.0000000000000D+00  0.0000000000000D+00
317  3.1600000000000D+00  0.0000000000000D+00  0.0000000000000D+00
318  3.1700000000000D+00  0.0000000000000D+00  0.0000000000000D+00
319  3.1800000000000D+00  0.0000000000000D+00  0.0000000000000D+00
320  3.1900000000000D+00  0.0000000000000D+00  0.0000000000000D+00
321  3.2000000000000D+00  0.0000000000000D+00  0.0000000000000D+00
322  3.2100000000000D+00  0.0000000000000D+00  0.0000000000000D+00
323  3.2200000000000D+00  0.0000000000000D+00  0.0000000000000D+00
324  3.2300000000000D+00  0.0000000000000D+00  0.0000000000000D+00
325  3.2400000000000D+00  0.0000000000000D+00  0.0000000000000D+00
326  3.2500000000000D+00  0.0000000000000D+00  0.0000000000000D+00
327  3.2600000000000D+00  0.0000000000000D+00  0.0000000000000D+00
328  3.2700000000000D+00  0.0000000000000D+00  0.0000000000000D+00
329  3.2800000000000D+00  0.0000000000000D+00  0.0000000000000D+00
330  3.2900000000000D+00  0.0000000000000D+00  0.0000000000000D+00
331  3.3000000000000D+00  0.0000000000000D+00  0.0000000000000D+00
332  3.3100000000000D+00  0.0000000000000D+00  0.0000000000000D+00
333  3.3200000000000D+00  0.0000000000000D+00  0.0000000000000D+00
334  3.3300000000000D+00  0.0000000000000D+00  0.0000000000000D+00
335  3.3400000000000D+00  0.0000000000000D+00  0.0000000000000D+00
336  3.3500000000000D+00  0.0000000000000D+00  0.0000000000000D+00
337  3.3600000000000D+00  0.0000000000000D+00  0.0000000000000D+00
338  3.3700000000000D+00  0.0000000000000D+00  0.0000000000000D+00
339  3.3800000000000D+00  0.0000000000000D+00  0.0000000000000D+00
340  3.3900000000000D+00  0.0000000000000D+00  0.0000000000000D+00
341  3.4000000000000D+00  0.0000000000000D+00  0.0000000000000D+00
342  3.4100000000000D+00  0.0000000000000D+00  0.0000000000000D+00
343  3.4200000000000D+00  0.0000000000000D+00  0.0000000000000D+00
344  3.4300000000000D+00  0.0000000000000D+00  0.0000000000000D+00
345  3.4400000000000D+00  0.0000000000000D+00  0.0000000000000D+00
346  3.4500000000000D+00  0.0000000000000D+00  0.0000000000000D+00
347  3.4600000000000D+00  0.0000000000000D+00  0.0000000000000D+00
348  3.4700000000000D+00  0.0000000000000D+00  0.0000000000000D+00
349  3.4800000000000D+00  0.0000000000000D+00  0.0000000000000D+00
350  3.4900000000000D+00  0.0000000000000D+00  0.0000000000000D+00
351  3.5000000000000D+00  0.0000000000000D+00  0.0000000000000D+00
352  3.5100000000000D+00  0.0000000000000D+00  0.0000000000000D+00
353  3.5200000000000D+00  0.0000000000000D+00  0.0000000000000D+00
354  3.5300000000000D+00  0.0000000000000D+00  0.0000000000000D+00
355  3.5400000000000D+00  0.0000000000000D+00  0.0000000000000D+00
356  3.5500000000000D+00  0.0000000000000D+00  0.0000000000000D+00
357  3.5600000000000D+00  0.0000000000000D+00  0.0000000000000D+00
358  3.5700000000000D+00  0.0000000000000D+00  0.0000000000000D+00
359  3.5800000000000D+00  0.0000000000000D+00  0.0000000000000D+00
360  3.5900000000000D+00  0.0000000000000D+00  0.0000000000000D+00
361  3.6000000000000D+00  0.0000000000000D+00  0.0000000000000D+00
362  3.6100000000000D+00  0.0000000000000D+00  0.0000000000000D+00
363  3.6200000000000D+00  0.0000000000000D+00  0.0000000000000D+00
364  3.6300000000000D+00  0.0000000000000D+00  0.0000000000000D+00
365  3.6400000000000D+00  0.0000000000000D+00  0.0000000000000D+00
366  3.6500000000000D+00  0.0000000000000D+00  0.0000000000000D+00
367  3.6600000000000D+00  0.0000000000000D+00  0.0000000000000D+00
368  3.6700000000000D+00  0.0000000000000D+00  0.0000000000000D+00
369  3.6800000000000D+00  0.0000000000000D+00  0.0000000000000D+00
370  3.6900000000000D+00  0.0000000000000D+00  0.0000000000000D+00
371  3.7000000000000D+00  0.0000000000000D+00  0.0000000000000D+00
372  3.7100000000000D+00  0.0000000000000D+00  0.0000000000000D+00
373  3.7200000000000D+00  0.0000000000000D+00  0.0000000000000D+00
374  3.7300000000000D+00  0.0000000000000D+00  0.0000000000000D+00
375  3.7400000000000D+00  0.0000000000000D+00  0.0000000000000D+00
376  3.7500000000000D+00  0.0000000000000D+00  0.0000000000000D+00
377  3.7600000000000D+00  0.0000000000000D+00  0.0000000000000D+00
378  3.7700000000000D+00  0.0000000000000D+00  0.0000000000000D+00
379  3.7800000000000D+00  0.0000000000000D+00  0.0000000000000D+00
380  3.7900000000000D+00  0.0000000000000D+00  0.0000000000000D+00
381  3.8000000000000D+00  0.0000000000000D+00  0.0000000000000D+00
382  3.8100000000000D+00  0.0000000000000D+00  0.0000000000000D+00
383  3.8200000000000D+00  0.0000000000000D+00  0.0000000000000D+00
384  3.8300000000000D+00  0.0000000000000D+00  0.0000000000000D+00
385  3.8400000000000D+00  0.0000000000000D+00  0.0000000000000D+00
386  3.8500000000000D+00  0.0000000000000D+00  0.0000000000000D+00
387  3.8600000000000D+00  0.0000000000000D+00  0.0000000000000D+00
388  3.8700000000000D+00  0.0000000000000D+00  0.0000000000000D+00
389  3.8800000000000D+00  0.0000000000000D+00  0.0000000000000D+00
390  3.8900000000000D+00  0.0000000000000D+00  0.0000000000000D+00
391  3.9000000000000D+00  0.0000000000000D+00  0.0000000000000D+00
392  3.9100000000000D+00  0.0000000000000D+00  0.0000000000000D+00
393  3.9200000000000D+00  0.0000000000000D+00  0.0000000000000D+00
394  3.9300000000000D+00  0.0000000000000D+00  0.0000000000000D+00
395  3.9400000000000D+00  0.0000000000000D+00  0.0000000000000D+00
396  3.9500000000000D+00  0.0000000000000D+00  0.0000000000000D+00
397  3.9600000000000D+00  0.0000000000000D+00  0.0000000000000D+00
398  3.9700000000000D+00  0.0000000000000D+00  0.0000000000000D+00
399  3.9800000000000D+00  0.0000000000000D+00  0.0000000000000D+00
400  3.9900000000000D+00  0.0000000000000D+00  0.0000000000000D+00
401  4.0000000000000D+00  0.0000000000000D+00  0.0000000000000D+00
402  4.0100000000000D+00  0.0000000000000D+00  0.0000000000000D+00
403  4.0200000000000D+00  0.0000000000000D+00  0.0000000000000D+00
404  4.0300000000000D+00  0.0000000000000D+00  0.0000000000000D+00
405  4.0400000000000D+00  0.0000000000000D+00  0.0000000000000D+00
406  4.0500000000000D+00  0.0000000000000D+00  0.0000000000000D+00
407  4.0600000000000D+00  0.0000000000000D+00  0.0000000000000D+00
408  4.0700000000000D+00  0.0000000000000D+00  0.0000000000000D+00
409  4.0800000000000D+00  0.0000000000000D+00  0.0000000000000D+00
410  4.0900000000000D+00  0.0000000000000D+00  0.0000000000000D+00
411  4.1000000000000D+00  0.0000000000000D+00  0.0000000000000D+00
412  4.1100000000000D+00  0.0000000000000D+00  0.0000000000000D+00
413  4.1200000000000D+00  0.0000000000000D+00  0.0000000000000D+00
414  4.1300000000000D+00  0.0000000000000D+00  0.0000000000000D+00
415  4.1400000000000D+00  0.0000000000000D+00  0.0000000000000D+00
416  4.1500000000000D+00  0.0000000000000D+00  0.0000000000000D+00
417  4.1600000000000D+00  0.0000000000000D+00  0.0000000000000D+00
418  4.1700000000000D+00  0.0000000000000D+00  0.0000000000000D+00
419  4.1800000000000D+00  0.0000000000000D+00  0.0000000000000D+00
420  4.1900000000000D+00  0.0000000000000D+00  0.0000000000000D+00
421  4.2000000000000D+00  0.0000000000000D+00  0.0000000000000D+00
422  4.2100000000000D+00  0.0000000000000D+00  0.0000000000000D+00
423  4.2200000000000D+00  0.0000000000000D+00  0.0000000000000D+00
424  4.2300000000000D+00  0.0000000000000D+00  0.0000000000000D+00
425  4.2400000000000D+00  0.0000000000000D+00  0.0000000000000D+00
426  4.2500000000000D+00  0.0000000000000D+00  0.0000000000000D+00
427  4.2600000000000D+00  0.0000000000000D+00  0.0000000000000D+00
428  4.2700000000000D+00  0.0000000000000D+00  0.0000000000000D+00
429  4.2800000000000D+00  0.0000000000000D+00  0.0000000000000D+00
430  4.2900000000000D+00  0.0000000000000D+00  0.0000000000000D+00
431  4.3000000000000D+00  0.0000000000000D+00  0.0000000000000D+00
432  4.3100000000000D+00  0.0000000000000D+00  0.0000000000000D+00
433  4.3200000000000D+00  0.0000000000000D+00  0.0000000000000D+00
434  4.3300000000000D+00  0.0000000000000D+00  0.0000000000000D+00
435  4.3400000000000D+00  0.0000000000000D+00  0.0000000000000D+00
436  4.3500000000000D+00  0.0000000000000D+00  0.0000000000000D+00
437  4.3600000000000D+00  0.0000000000000D+00  0.0000000000000D+00
438  4.3700000000000D+00  0.0000000000000D+00  0.0000000000000D+00
439  4.3800000000000D+00  0.0000000000000D+00  0.0000000000000D+00
440  4.3900000000000D+00  0.0000000000000D+00  0.0000000000000D+00
441  4.4000000000000D+00  0.0000000000000D+00  0.0000000000000D+00
442  4.4100000000000D+00  0.0000000000000D+00  0.0000000000000D+00
443  4.4200000000000D+00  0.0000000000000D+00  0.0000000000000D+00
444  4.4300000000000D+00  0.0000000000000D+00  0.0000000000000D+00