Si    ONCVPSP-3.3.0  r_core=   1.60303   1.72197   1.91712
14.0000      4.0000      180423    zatom,zion,pspd
8      11   2     4   600     0    pspcod,pspxc,lmax,lloc,mmax,r2well
5.99000000  4.00000000  0.00000000    rchrg fchrg qchrg
2     3     2     0    nproj
3     1           extension_switch
4     3     0    nprojso
0                         8.3017033695175D-01  5.1693444514459D+00
1  0.0000000000000D+00  1.2523442661366D-08 -5.6354553246152D-09
2  1.0000000000000D-02 -7.8248894949010D-03  3.1589806999166D-02
3  2.0000000000000D-02 -1.5094928786720D-02  6.2920648781125D-02
4  3.0000000000000D-02 -2.1266137875149D-02  9.3738442041792D-02
5  4.0000000000000D-02 -2.5816085603245D-02  1.2379878110774D-01
6  5.0000000000000D-02 -2.8254188439943D-02  1.5287156273235D-01
7  6.0000000000000D-02 -2.8131447586467D-02  1.8074535815960D-01
8  7.0000000000000D-02 -2.5049452169574D-02  2.0723145495614D-01
9  8.0000000000000D-02 -1.8668488808040D-02  2.3216749674730D-01
10  9.0000000000000D-02 -8.7146130948254D-03  2.5542065585840D-01
11  1.0000000000000D-01  5.0144437294995D-03  2.7689028184228D-01
12  1.1000000000000D-01  2.2644639724288D-02  2.9650997783527D-01
13  1.2000000000000D-01  4.4222343871670D-02  3.1424906647511D-01
14  1.3000000000000D-01  6.9712476191566D-02  3.3011341757244D-01
15  1.4000000000000D-01  9.8998103838658D-02  3.4414562067591D-01
16  1.5000000000000D-01  1.3188150566377D-01  3.5642449692656D-01
17  1.6000000000000D-01  1.6808669245574D-01  3.6706395596910D-01
18  1.7000000000000D-01  2.0726334497984D-01  3.7621121498625D-01
19  1.8000000000000D-01  2.4899210741984D-01  3.8404440795526D-01
20  1.9000000000000D-01  2.9279115032616D-01  3.9076962380714D-01
21  2.0000000000000D-01  3.3812389507189D-01  3.9661742212029D-01
22  2.1000000000000D-01  3.8440777149605D-01  4.0183888413087D-01
23  2.2000000000000D-01  4.3102386221732D-01  4.0670126503799D-01
24  2.3000000000000D-01  4.7732727134140D-01  4.1148332068081D-01
25  2.4000000000000D-01  5.2265804223439D-01  4.1647038754580D-01
26  2.5000000000000D-01  5.6635243891855D-01  4.2194929962345D-01
27  2.6000000000000D-01  6.0775439864474D-01  4.2820322879322D-01
28  2.7000000000000D-01  6.4622695943335D-01  4.3550653711827D-01
29  2.8000000000000D-01  6.8116346592607D-01  4.4411972964291D-01
30  2.9000000000000D-01  7.1199835977191D-01  4.5428459499822D-01
31  3.0000000000000D-01  7.3821736694372D-01  4.6621961835306D-01
32  3.1000000000000D-01  7.5936690375405D-01  4.8011574703740D-01
33  3.2000000000000D-01  7.7506253576347D-01  4.9613258358260D-01
34  3.3000000000000D-01  7.8499633905356D-01  5.1439507405342D-01
35  3.4000000000000D-01  7.8894303122286D-01  5.3499075150369D-01
36  3.5000000000000D-01  7.8676475966727D-01  5.5796758529985D-01
37  3.6000000000000D-01  7.7841445689680D-01  5.8333247707299D-01
38  3.7000000000000D-01  7.6393769645104D-01  6.1105043334570D-01
39  3.8000000000000D-01  7.4347300801841D-01  6.4104443360879D-01
40  3.9000000000000D-01  7.1725063621805D-01  6.7319600098474D-01
41  4.0000000000000D-01  6.8558975374376D-01  7.0734647079968D-01
42  4.1000000000000D-01  6.4889416575614D-01  7.4329894059233D-01
43  4.2000000000000D-01  6.0764656810409D-01  7.8082087351398D-01
44  4.3000000000000D-01  5.6240144672779D-01  8.1964731591145D-01
45  4.4000000000000D-01  5.1377672902438D-01  8.5948467932496D-01
46  4.5000000000000D-01  4.6244431964640D-01  9.0001502735226D-01
47  4.6000000000000D-01  4.0911967278148D-01  9.4090079899761D-01
48  4.7000000000000D-01  3.5455057009252D-01  9.8178989238990D-01
49  4.8000000000000D-01  2.9950528788330D-01  1.0223210262530D+00
50  4.9000000000000D-01  2.4476034844105D-01  1.0621292913576D+00
51  5.0000000000000D-01  1.9108805869022D-01  1.1008518004712D+00
52  5.1000000000000D-01  1.3924404411903D-01  1.1381333431145D+00
53  5.2000000000000D-01  8.9954987313749D-02  1.1736319507848D+00
54  5.3000000000000D-01  4.3906778308821D-02  1.2070242792249D+00
55  5.4000000000000D-01  1.7332783711421D-03  1.2380107167983D+00
56  5.5000000000000D-01 -3.5994110180708D-02  1.2663201320547D+00
57  5.6000000000000D-01 -6.8775887786997D-02  1.2917141790534D+00
58  5.7000000000000D-01 -9.6192750114708D-02  1.3139910858925D+00
59  5.8000000000000D-01 -1.1791258243503D-01  1.3329888600639D+00
60  5.9000000000000D-01 -1.3369602990808D-01  1.3485878535553D+00
61  6.0000000000000D-01 -1.4340054081148D-01  1.3607126409666D+00
62  6.1000000000000D-01 -1.4698280459302D-01  1.3693331750595D+00
63  6.2000000000000D-01 -1.4449953294776D-01  1.3744651959882D+00
64  6.3000000000000D-01 -1.3610655955796D-01  1.3761698827856D+00
65  6.4000000000000D-01 -1.2205626194688D-01  1.3745527481884D+00
66  6.5000000000000D-01 -1.0269333712997D-01  1.3697617905796D+00
67  6.6000000000000D-01 -7.8448990419704D-02  1.3619849292817D+00
68  6.7000000000000D-01 -4.9833623635129D-02  1.3514467615374D+00
69  6.8000000000000D-01 -1.7428134791505D-02  1.3384046911503D+00
70  6.9000000000000D-01  1.8126034714322D-02  1.3231444895419D+00
71  7.0000000000000D-01  5.6137947460654D-02  1.3059753598839D+00
72  7.1000000000000D-01  9.5879134451827D-02  1.2872245837565D+00
73  7.2000000000000D-01  1.3659628251827D-01  1.2672318373333D+00
74  7.3000000000000D-01  1.7752443696697D-01  1.2463432702283D+00
75  7.4000000000000D-01  2.1790050151572D-01  1.2249054448082D+00
76  7.5000000000000D-01  2.5697681083132D-01  1.2032592368378D+00
77  7.6000000000000D-01  2.9403454791596D-01  1.1817337997668D+00
78  7.7000000000000D-01  3.2839677927114D-01  1.1606406947135D+00
79  7.8000000000000D-01  3.5944088519187D-01  1.1402682862680D+00
80  7.9000000000000D-01  3.8661017067288D-01  1.1208765006449D+00
81  8.0000000000000D-01  4.0942445413522D-01  1.1026920374988D+00
82  8.1000000000000D-01  4.2748944633921D-01  1.0859041199637D+00
83  8.2000000000000D-01  4.4050475021285D-01  1.0706608592751D+00
84  8.3000000000000D-01  4.4827033361686D-01  1.0570663008211D+00
85  8.4000000000000D-01  4.5069135096196D-01  1.0451782077772D+00
86  8.5000000000000D-01  4.4778121571808D-01  1.0350066267844D+00
87  8.6000000000000D-01  4.3966285379992D-01  1.0265132676153D+00
88  8.7000000000000D-01  4.2656809713680D-01  1.0196117156296D+00
89  8.8000000000000D-01  4.0883520696757D-01  1.0141684822667D+00
90  8.9000000000000D-01  3.8690454706024D-01  1.0100048850689D+00
91  9.0000000000000D-01  3.6131245764544D-01  1.0068997350042D+00
92  9.1000000000000D-01  3.3268341087340D-01  1.0045927953776D+00
93  9.2000000000000D-01  3.0172055756760D-01  1.0027889636105D+00
94  9.3000000000000D-01  2.6919480247479D-01  1.0011631148453D+00
95  9.4000000000000D-01  2.3593257064565D-01  9.9936553488990D-01
96  9.5000000000000D-01  2.0280245059761D-01  9.9702785966421D-01
97  9.6000000000000D-01  1.7070092011926D-01  9.9376942920550D-01
98  9.7000000000000D-01  1.4053737762504D-01  9.8920395660095D-01
99  9.8000000000000D-01  1.1321871561337D-01  9.8294640605005D-01
100  9.9000000000000D-01  8.9633682496565D-02  9.7461996985415D-01
101  1.0000000000000D+00  7.0637285389635D-02  9.6386303124405D-01
102  1.0100000000000D+00  5.7035488192784D-02  9.5033599912063D-01
103  1.0200000000000D+00  4.9570457323669D-02  9.3372790161678D-01
104  1.0300000000000D+00  4.8906601362834D-02  9.1376262806757D-01
105  1.0400000000000D+00  5.5617640448781D-02  8.9020471359670D-01
106  1.0500000000000D+00  7.0174927474988D-02  8.6286456665737D-01
107  1.0600000000000D+00  9.2937225892276D-02  8.3160304754973D-01
108  1.0700000000000D+00  1.2414212672008D-01  7.9633531584143D-01
109  1.0800000000000D+00  1.6389926425013D-01  7.5703387494186D-01
110  1.0900000000000D+00  2.1218546163146D-01  7.1373075472357D-01
111  1.1000000000000D+00  2.6884190977500D-01  6.6651878549184D-01
112  1.1100000000000D+00  3.3357345173132D-01  6.1555193059530D-01
113  1.1200000000000D+00  4.0595001022731D-01  5.6104466039513D-01
114  1.1300000000000D+00  4.8541016429797D-01  5.0327036452300D-01
115  1.1400000000000D+00  5.7126684553349D-01  4.4255881521751D-01
116  1.1500000000000D+00  6.6271509561167D-01  3.7929270745038D-01
117  1.1600000000000D+00  7.5884178593568D-01  3.1390331985828D-01
118  1.1700000000000D+00  8.5863717338614D-01  2.4686535251610D-01
119  1.1800000000000D+00  9.6100813652075D-01  1.7869101089377D-01
120  1.1900000000000D+00  1.0647929084441D+00  1.0992341794604D-01
121  1.2000000000000D+00  1.1687770937959D+00  4.1129449200379D-02
122  1.2100000000000D+00  1.2717107379776D+00 -2.7107905605482D-02
123  1.2200000000000D+00  1.3723262029065D+00 -9.4197544577002D-02
124  1.2300000000000D+00  1.4693565780778D+00 -1.5954849817044D-01
125  1.2400000000000D+00  1.5615543535987D+00 -2.2257829394246D-01
126  1.2500000000000D+00  1.6477100737810D+00 -2.8272131568681D-01
127  1.2600000000000D+00  1.7266706827267D+00 -3.3943702785197D-01
128  1.2700000000000D+00  1.7973572829623D+00 -3.9221794039817D-01
129  1.2800000000000D+00  1.8587820299312D+00 -4.4059719002181D-01
130  1.2900000000000D+00  1.9100638921286D+00 -4.8415561674801D-01
131  1.3000000000000D+00  1.9504430370842D+00 -5.2252822846745D-01
132  1.3100000000000D+00  1.9792936031284D+00 -5.5540994586784D-01
133  1.3200000000000D+00  1.9961346452998D+00 -5.8256053288411D-01
134  1.3300000000000D+00  2.0006390933353D+00 -6.0380863995283D-01
135  1.3400000000000D+00  1.9926405402068D+00 -6.1905487864693D-01
136  1.3500000000000D+00  1.9721377538814D+00 -6.2827387942818D-01
137  1.3600000000000D+00  1.9392968431706D+00 -6.3151530134752D-01
138  1.3700000000000D+00  1.8944509747307D+00 -6.2890374738987D-01
139  1.3800000000000D+00  1.8380976799985D+00 -6.2063760255517D-01
140  1.3900000000000D+00  1.7708937422075D+00 -6.0698679001634D-01
141  1.4000000000000D+00  1.6936477079699D+00 -5.8828946499391D-01
142  1.4100000000000D+00  1.6073101676188D+00 -5.6494771062277D-01
143  1.4200000000000D+00  1.5129618584936D+00 -5.3742225979244D-01
144  1.4300000000000D+00  1.4117998162463D+00 -5.0622634343945D-01
145  1.4400000000000D+00  1.3051217317192D+00 -4.7191873555293D-01
146  1.4500000000000D+00  1.1943087241010D+00 -4.3509608893538D-01
147  1.4600000000000D+00  1.0808068148745D+00 -3.9638468884617D-01
148  1.4700000000000D+00  9.6610730580569D-01 -3.5643171522490D-01
149  1.4800000000000D+00  8.5172640218417D-01 -3.1589616603170D-01
150  1.4900000000000D+00  7.3918432868847D-01 -2.7543955218488D-01
151  1.5000000000000D+00  6.2998427209520D-01 -2.3571651349840D-01
152  1.5100000000000D+00  5.2559142952006D-01 -1.9736548018488D-01
153  1.5200000000000D+00  4.2741250357621D-01 -1.6099953251312D-01
154  1.5300000000000D+00  3.3677588766979D-01 -1.2719756739080D-01
155  1.5400000000000D+00  2.5491291350770D-01 -9.6495938181316D-02
156  1.5500000000000D+00  1.8296630581151D-01 -6.9390519822108D-02
157  1.5600000000000D+00  1.2188848085415D-01 -4.6296998073542D-02
158  1.5700000000000D+00  7.2256682939805D-02 -2.7479459055026D-02
159  1.5800000000000D+00  3.5250751946724D-02 -1.3422117608731D-02
160  1.5900000000000D+00  1.2222071568681D-02 -4.6650018122336D-03
161  1.6000000000000D+00  1.4736890494813D-03 -5.7426635751477D-04
162  1.6100000000000D+00 -1.2023907698808D-03  4.4976069728121D-04
163  1.6200000000000D+00 -3.0293915908184D-04  1.1415478561836D-04
164  1.6300000000000D+00  3.7179004456762D-04 -1.4028397371393D-04
165  1.6400000000000D+00  9.0767968535561D-05 -3.4284652077795D-05
166  1.6500000000000D+00 -6.7005290303505D-05  2.5199687468549D-05
167  1.6600000000000D+00 -1.4520880601566D-05  5.4647392694935D-06
168  1.6700000000000D+00 -7.9060246413369D-08  6.5039141193358D-08
169  1.6800000000000D+00 -1.6121921429931D-08  1.3262745460052D-08
170  1.6900000000000D+00  0.0000000000000D+00  0.0000000000000D+00
171  1.7000000000000D+00  0.0000000000000D+00  0.0000000000000D+00
172  1.7100000000000D+00  0.0000000000000D+00  0.0000000000000D+00
173  1.7200000000000D+00  0.0000000000000D+00  0.0000000000000D+00
174  1.7300000000000D+00  0.0000000000000D+00  0.0000000000000D+00
175  1.7400000000000D+00  0.0000000000000D+00  0.0000000000000D+00
176  1.7500000000000D+00  0.0000000000000D+00  0.0000000000000D+00
177  1.7600000000000D+00  0.0000000000000D+00  0.0000000000000D+00
178  1.7700000000000D+00  0.0000000000000D+00  0.0000000000000D+00
179  1.7800000000000D+00  0.0000000000000D+00  0.0000000000000D+00
180  1.7900000000000D+00  0.0000000000000D+00  0.0000000000000D+00
181  1.8000000000000D+00  0.0000000000000D+00  0.0000000000000D+00
182  1.8100000000000D+00  0.0000000000000D+00  0.0000000000000D+00
183  1.8200000000000D+00  0.0000000000000D+00  0.0000000000000D+00
184  1.8300000000000D+00  0.0000000000000D+00  0.0000000000000D+00
185  1.8400000000000D+00  0.0000000000000D+00  0.0000000000000D+00
186  1.8500000000000D+00  0.0000000000000D+00  0.0000000000000D+00
187  1.8600000000000D+00  0.0000000000000D+00  0.0000000000000D+00
188  1.8700000000000D+00  0.0000000000000D+00  0.0000000000000D+00
189  1.8800000000000D+00  0.0000000000000D+00  0.0000000000000D+00
190  1.8900000000000D+00  0.0000000000000D+00  0.0000000000000D+00
191  1.9000000000000D+00  0.0000000000000D+00  0.0000000000000D+00
192  1.9100000000000D+00  0.0000000000000D+00  0.0000000000000D+00
193  1.9200000000000D+00  0.0000000000000D+00  0.0000000000000D+00
194  1.9300000000000D+00  0.0000000000000D+00  0.0000000000000D+00
195  1.9400000000000D+00  0.0000000000000D+00  0.0000000000000D+00
196  1.9500000000000D+00  0.0000000000000D+00  0.0000000000000D+00
197  1.9600000000000D+00  0.0000000000000D+00  0.0000000000000D+00
198  1.9700000000000D+00  0.0000000000000D+00  0.0000000000000D+00
199  1.9800000000000D+00  0.0000000000000D+00  0.0000000000000D+00
200  1.9900000000000D+00  0.0000000000000D+00  0.0000000000000D+00
201  2.0000000000000D+00  0.0000000000000D+00  0.0000000000000D+00
202  2.0100000000000D+00  0.0000000000000D+00  0.0000000000000D+00
203  2.0200000000000D+00  0.0000000000000D+00  0.0000000000000D+00
204  2.0300000000000D+00  0.0000000000000D+00  0.0000000000000D+00
205  2.0400000000000D+00  0.0000000000000D+00  0.0000000000000D+00
206  2.0500000000000D+00  0.0000000000000D+00  0.0000000000000D+00
207  2.0600000000000D+00  0.0000000000000D+00  0.0000000000000D+00
208  2.0700000000000D+00  0.0000000000000D+00  0.0000000000000D+00
209  2.0800000000000D+00  0.0000000000000D+00  0.0000000000000D+00
210  2.0900000000000D+00  0.0000000000000D+00  0.0000000000000D+00
211  2.1000000000000D+00  0.0000000000000D+00  0.0000000000000D+00
212  2.1100000000000D+00  0.0000000000000D+00  0.0000000000000D+00
213  2.1200000000000D+00  0.0000000000000D+00  0.0000000000000D+00
214  2.1300000000000D+00  0.0000000000000D+00  0.0000000000000D+00
215  2.1400000000000D+00  0.0000000000000D+00  0.0000000000000D+00
216  2.1500000000000D+00  0.0000000000000D+00  0.0000000000000D+00
217  2.1600000000000D+00  0.0000000000000D+00  0.0000000000000D+00
218  2.1700000000000D+00  0.0000000000000D+00  0.0000000000000D+00
219  2.1800000000000D+00  0.0000000000000D+00  0.0000000000000D+00
220  2.1900000000000D+00  0.0000000000000D+00  0.0000000000000D+00
221  2.2000000000000D+00  0.0000000000000D+00  0.0000000000000D+00
222  2.2100000000000D+00  0.0000000000000D+00  0.0000000000000D+00
223  2.2200000000000D+00  0.0000000000000D+00  0.0000000000000D+00
224  2.2300000000000D+00  0.0000000000000D+00  0.0000000000000D+00
225  2.2400000000000D+00  0.0000000000000D+00  0.0000000000000D+00
226  2.2500000000000D+00  0.0000000000000D+00  0.0000000000000D+00
227  2.2600000000000D+00  0.0000000000000D+00  0.0000000000000D+00
228  2.2700000000000D+00  0.0000000000000D+00  0.0000000000000D+00
229  2.2800000000000D+00  0.0000000000000D+00  0.0000000000000D+00
230  2.2900000000000D+00  0.0000000000000D+00  0.0000000000000D+00
231  2.3000000000000D+00  0.0000000000000D+00  0.0000000000000D+00
232  2.3100000000000D+00  0.0000000000000D+00  0.0000000000000D+00
233  2.3200000000000D+00  0.0000000000000D+00  0.0000000000000D+00
234  2.3300000000000D+00  0.0000000000000D+00  0.0000000000000D+00
235  2.3400000000000D+00  0.0000000000000D+00  0.0000000000000D+00
236  2.3500000000000D+00  0.0000000000000D+00  0.0000000000000D+00
237  2.3600000000000D+00  0.0000000000000D+00  0.0000000000000D+00
238  2.3700000000000D+00  0.0000000000000D+00  0.0000000000000D+00
239  2.3800000000000D+00  0.0000000000000D+00  0.0000000000000D+00
240  2.3900000000000D+00  0.0000000000000D+00  0.0000000000000D+00
241  2.4000000000000D+00  0.0000000000000D+00  0.0000000000000D+00
242  2.4100000000000D+00  0.0000000000000D+00  0.0000000000000D+00
243  2.4200000000000D+00  0.0000000000000D+00  0.0000000000000D+00
244  2.4300000000000D+00  0.0000000000000D+00  0.0000000000000D+00
245  2.4400000000000D+00  0.0000000000000D+00  0.0000000000000D+00
246  2.4500000000000D+00  0.0000000000000D+00  0.0000000000000D+00
247  2.4600000000000D+00  0.0000000000000D+00  0.0000000000000D+00
248  2.4700000000000D+00  0.0000000000000D+00  0.0000000000000D+00
249  2.4800000000000D+00  0.0000000000000D+00  0.0000000000000D+00
250  2.4900000000000D+00  0.0000000000000D+00  0.0000000000000D+00
251  2.5000000000000D+00  0.0000000000000D+00  0.0000000000000D+00
252  2.5100000000000D+00  0.0000000000000D+00  0.0000000000000D+00
253  2.5200000000000D+00  0.0000000000000D+00  0.0000000000000D+00
254  2.5300000000000D+00  0.0000000000000D+00  0.0000000000000D+00
255  2.5400000000000D+00  0.0000000000000D+00  0.0000000000000D+00
256  2.5500000000000D+00  0.0000000000000D+00  0.0000000000000D+00
257  2.5600000000000D+00  0.0000000000000D+00  0.0000000000000D+00
258  2.5700000000000D+00  0.0000000000000D+00  0.0000000000000D+00
259  2.5800000000000D+00  0.0000000000000D+00  0.0000000000000D+00
260  2.5900000000000D+00  0.0000000000000D+00  0.0000000000000D+00
261  2.6000000000000D+00  0.0000000000000D+00  0.0000000000000D+00
262  2.6100000000000D+00  0.0000000000000D+00  0.0000000000000D+00
263  2.6200000000000D+00  0.0000000000000D+00  0.0000000000000D+00
264  2.6300000000000D+00  0.0000000000000D+00  0.0000000000000D+00
265  2.6400000000000D+00  0.0000000000000D+00  0.0000000000000D+00
266  2.6500000000000D+00  0.0000000000000D+00  0.0000000000000D+00
267  2.6600000000000D+00  0.0000000000000D+00  0.0000000000000D+00
268  2.6700000000000D+00  0.0000000000000D+00  0.0000000000000D+00
269  2.6800000000000D+00  0.0000000000000D+00  0.0000000000000D+00
270  2.6900000000000D+00  0.0000000000000D+00  0.0000000000000D+00
271  2.7000000000000D+00  0.0000000000000D+00  0.0000000000000D+00
272  2.7100000000000D+00  0.0000000000000D+00  0.0000000000000D+00
273  2.7200000000000D+00  0.0000000000000D+00  0.0000000000000D+00
274  2.7300000000000D+00  0.0000000000000D+00  0.0000000000000D+00
275  2.7400000000000D+00  0.0000000000000D+00  0.0000000000000D+00
276  2.7500000000000D+00  0.0000000000000D+00  0.0000000000000D+00
277  2.7600000000000D+00  0.0000000000000D+00  0.0000000000000D+00
278  2.7700000000000D+00  0.0000000000000D+00  0.0000000000000D+00
279  2.7800000000000D+00  0.0000000000000D+00  0.0000000000000D+00
280  2.7900000000000D+00  0.0000000000000D+00  0.0000000000000D+00
281  2.8000000000000D+00  0.0000000000000D+00  0.0000000000000D+00
282  2.8100000000000D+00  0.0000000000000D+00  0.0000000000000D+00
283  2.8200000000000D+00  0.0000000000000D+00  0.0000000000000D+00
284  2.8300000000000D+00  0.0000000000000D+00  0.0000000000000D+00
285  2.8400000000000D+00  0.0000000000000D+00  0.0000000000000D+00
286  2.8500000000000D+00  0.0000000000000D+00  0.0000000000000D+00
287  2.8600000000000D+00  0.0000000000000D+00  0.0000000000000D+00
288  2.8700000000000D+00  0.0000000000000D+00  0.0000000000000D+00
289  2.8800000000000D+00  0.0000000000000D+00  0.0000000000000D+00
290  2.8900000000000D+00  0.0000000000000D+00  0.0000000000000D+00
291  2.9000000000000D+00  0.0000000000000D+00  0.0000000000000D+00
292  2.9100000000000D+00  0.0000000000000D+00  0.0000000000000D+00
293  2.9200000000000D+00  0.0000000000000D+00  0.0000000000000D+00
294  2.9300000000000D+00  0.0000000000000D+00  0.0000000000000D+00
295  2.9400000000000D+00  0.0000000000000D+00  0.0000000000000D+00
296  2.9500000000000D+00  0.0000000000000D+00  0.0000000000000D+00
297  2.9600000000000D+00  0.0000000000000D+00  0.0000000000000D+00
298  2.9700000000000D+00  0.0000000000000D+00  0.0000000000000D+00
299  2.9800000000000D+00  0.0000000000000D+00  0.0000000000000D+00
300  2.9900000000000D+00  0.0000000000000D+00  0.0000000000000D+00
301  3.0000000000000D+00  0.0000000000000D+00  0.0000000000000D+00
302  3.0100000000000D+00  0.0000000000000D+00  0.0000000000000D+00
303  3.0200000000000D+00  0.0000000000000D+00  0.0000000000000D+00
304  3.0300000000000D+00  0.0000000000000D+00  0.0000000000000D+00
305  3.0400000000000D+00  0.0000000000000D+00  0.0000000000000D+00
306  3.0500000000000D+00  0.0000000000000D+00  0.0000000000000D+00
307  3.0600000000000D+00  0.0000000000000D+00  0.0000000000000D+00
308  3.0700000000000D+00  0.0000000000000D+00  0.0000000000000D+00
309  3.0800000000000D+00  0.0000000000000D+00  0.0000000000000D+00
310  3.0900000000000D+00  0.0000000000000D+00  0.0000000000000D+00
311  3.1000000000000D+00  0.0000000000000D+00  0.0000000000000D+00
312  3.1100000000000D+00  0.0000000000000D+00  0.0000000000000D+00
313  3.1200000000000D+00  0.0000000000000D+00  0.0000000000000D+00
314  3.1300000000000D+00  0.0000000000000D+00  0.0000000000000D+00
315  3.1400000000000D+00  0.0000000000000D+00  0.0000000000000D+00
316  3.1500000000000D+00  0.0000000000000D+00  0.0000000000000D+00
317  3.1600000000000D+00  0.0000000000000D+00  0.0000000000000D+00
318  3.1700000000000D+00  0.0000000000000D+00  0.0000000000000D+00
319  3.1800000000000D+00  0.0000000000000D+00  0.0000000000000D+00
320  3.1900000000000D+00  0.0000000000000D+00  0.0000000000000D+00
321  3.2000000000000D+00  0.0000000000000D+00  0.0000000000000D+00
322  3.2100000000000D+00  0.0000000000000D+00  0.0000000000000D+00
323  3.2200000000000D+00  0.0000000000000D+00  0.0000000000000D+00
324  3.2300000000000D+00  0.0000000000000D+00  0.0000000000000D+00
325  3.2400000000000D+00  0.0000000000000D+00  0.0000000000000D+00
326  3.2500000000000D+00  0.0000000000000D+00  0.0000000000000D+00
327  3.2600000000000D+00  0.0000000000000D+00  0.0000000000000D+00
328  3.2700000000000D+00  0.0000000000000D+00  0.0000000000000D+00
329  3.2800000000000D+00  0.0000000000000D+00  0.0000000000000D+00
330  3.2900000000000D+00  0.0000000000000D+00  0.0000000000000D+00
331  3.3000000000000D+00  0.0000000000000D+00  0.0000000000000D+00
332  3.3100000000000D+00  0.0000000000000D+00  0.0000000000000D+00
333  3.3200000000000D+00  0.0000000000000D+00  0.0000000000000D+00
334  3.3300000000000D+00  0.0000000000000D+00  0.0000000000000D+00
335  3.3400000000000D+00  0.0000000000000D+00  0.0000000000000D+00
336  3.3500000000000D+00  0.0000000000000D+00  0.0000000000000D+00
337  3.3600000000000D+00  0.0000000000000D+00  0.0000000000000D+00
338  3.3700000000000D+00  0.0000000000000D+00  0.0000000000000D+00
339  3.3800000000000D+00  0.0000000000000D+00  0.0000000000000D+00
340  3.3900000000000D+00  0.0000000000000D+00  0.0000000000000D+00
341  3.4000000000000D+00  0.0000000000000D+00  0.0000000000000D+00
342  3.4100000000000D+00  0.0000000000000D+00  0.0000000000000D+00
343  3.4200000000000D+00  0.0000000000000D+00  0.0000000000000D+00
344  3.4300000000000D+00  0.0000000000000D+00  0.0000000000000D+00
345  3.4400000000000D+00  0.0000000000000D+00  0.0000000000000D+00
346  3.4500000000000D+00  0.0000000000000D+00  0.0000000000000D+00
347  3.4600000000000D+00  0.0000000000000D+00  0.0000000000000D+00
348  3.4700000000000D+00  0.0000000000000D+00  0.0000000000000D+00
349  3.4800000000000D+00  0.0000000000000D+00  0.0000000000000D+00
350  3.4900000000000D+00  0.0000000000000D+00  0.0000000000000D+00
351  3.5000000000000D+00  0.0000000000000D+00  0.0000000000000D+00
352  3.5100000000000D+00  0.0000000000000D+00  0.0000000000000D+00
353  3.5200000000000D+00  0.0000000000000D+00  0.0000000000000D+00
354  3.5300000000000D+00  0.0000000000000D+00  0.0000000000000D+00
355  3.5400000000000D+00  0.0000000000000D+00  0.0000000000000D+00
356  3.5500000000000D+00  0.0000000000000D+00  0.0000000000000D+00
357  3.5600000000000D+00  0.0000000000000D+00  0.0000000000000D+00
358  3.5700000000000D+00  0.0000000000000D+00  0.0000000000000D+00
359  3.5800000000000D+00  0.0000000000000D+00  0.0000000000000D+00
360  3.5900000000000D+00  0.0000000000000D+00  0.0000000000000D+00
361  3.6000000000000D+00  0.0000000000000D+00  0.0000000000000D+00
362  3.6100000000000D+00  0.0000000000000D+00  0.0000000000000D+00
363  3.6200000000000D+00  0.0000000000000D+00  0.0000000000000D+00
364  3.6300000000000D+00  0.0000000000000D+00  0.0000000000000D+00
365  3.6400000000000D+00  0.0000000000000D+00  0.0000000000000D+00
366  3.6500000000000D+00  0.0000000000000D+00  0.0000000000000D+00
367  3.6600000000000D+00  0.0000000000000D+00  0.0000000000000D+00
368  3.6700000000000D+00  0.0000000000000D+00  0.0000000000000D+00
369  3.6800000000000D+00  0.0000000000000D+00  0.0000000000000D+00
370  3.6900000000000D+00  0.0000000000000D+00  0.0000000000000D+00
371  3.7000000000000D+00  0.0000000000000D+00  0.0000000000000D+00
372  3.7100000000000D+00  0.0000000000000D+00  0.0000000000000D+00
373  3.7200000000000D+00  0.0000000000000D+00  0.0000000000000D+00
374  3.7300000000000D+00  0.0000000000000D+00  0.0000000000000D+00
375  3.7400000000000D+00  0.0000000000000D+00  0.0000000000000D+00
376  3.7500000000000D+00  0.0000000000000D+00  0.0000000000000D+00
377  3.7600000000000D+00  0.0000000000000D+00  0.0000000000000D+00
378  3.7700000000000D+00  0.0000000000000D+00  0.0000000000000D+00
379  3.7800000000000D+00  0.0000000000000D+00  0.0000000000000D+00
380  3.7900000000000D+00  0.0000000000000D+00  0.0000000000000D+00
381  3.8000000000000D+00  0.0000000000000D+00  0.0000000000000D+00
382  3.8100000000000D+00  0.0000000000000D+00  0.0000000000000D+00
383  3.8200000000000D+00  0.0000000000000D+00  0.0000000000000D+00
384  3.8300000000000D+00  0.0000000000000D+00  0.0000000000000D+00
385  3.8400000000000D+00  0.0000000000000D+00  0.0000000000000D+00
386  3.8500000000000D+00  0.0000000000000D+00  0.0000000000000D+00
387  3.8600000000000D+00  0.0000000000000D+00  0.0000000000000D+00
388  3.8700000000000D+00  0.0000000000000D+00  0.0000000000000D+00
389  3.8800000000000D+00  0.0000000000000D+00  0.0000000000000D+00
390  3.8900000000000D+00  0.0000000000000D+00  0.0000000000000D+00
391  3.9000000000000D+00  0.0000000000000D+00  0.0000000000000D+00
392  3.9100000000000D+00  0.0000000000000D+00  0.0000000000000D+00
393  3.9200000000000D+00  0.0000000000000D+00  0.0000000000000D+00
394  3.9300000000000D+00  0.0000000000000D+00  0.0000000000000D+00
395  3.9400000000000D+00  0.0000000000000D+00  0.0000000000000D+00
396  3.9500000000000D+00  0.0000000000000D+00  0.0000000000000D+00
397  3.9600000000000D+00  0.0000000000000D+00  0.0000000000000D+00
398  3.9700000000000D+00  0.0000000000000D+00  0.0000000000000D+00
399  3.9800000000000D+00  0.0000000000000D+00  0.0000000000000D+00
400  3.9900000000000D+00  0.0000000000000D+00  0.0000000000000D+00
401  4.0000000000000D+00  0.0000000000000D+00  0.0000000000000D+00
402  4.0100000000000D+00  0.0000000000000D+00  0.0000000000000D+00
403  4.0200000000000D+00  0.0000000000000D+00  0.0000000000000D+00
404  4.0300000000000D+00  0.0000000000000D+00  0.0000000000000D+00
405  4.0400000000000D+00  0.0000000000000D+00  0.0000000000000D+00
406  4.0500000000000D+00  0.0000000000000D+00  0.0000000000000D+00
407  4.0600000000000D+00  0.0000000000000D+00  0.0000000000000D+00
408  4.0700000000000D+00  0.0000000000000D+00  0.0000000000000D+00
409  4.0800000000000D+00  0.0000000000000D+00  0.0000000000000D+00
410  4.0900000000000D+00  0.0000000000000D+00  0.0000000000000D+00
411  4.1000000000000D+00  0.0000000000000D+00  0.0000000000000D+00
412  4.1100000000000D+00  0.0000000000000D+00  0.0000000000000D+00
413  4.1200000000000D+00  0.0000000000000D+00  0.0000000000000D+00
414  4.1300000000000D+00  0.0000000000000D+00  0.0000000000000D+00
415  4.1400000000000D+00  0.0000000000000D+00  0.0000000000000D+00
416  4.1500000000000D+00  0.0000000000000D+00  0.0000000000000D+00
417  4.1600000000000D+00  0.0000000000000D+00  0.0000000000000D+00
418  4.1700000000000D+00  0.0000000000000D+00  0.0000000000000D+00
419  4.1800000000000D+00  0.0000000000000D+00  0.0000000000000D+00
420  4.1900000000000D+00  0.0000000000000D+00  0.0000000000000D+00
421  4.2000000000000D+00  0.0000000000000D+00  0.0000000000000D+00
422  4.2100000000000D+00  0.0000000000000D+00  0.0000000000000D+00
423  4.2200000000000D+00  0.0000000000000D+00  0.0000000000000D+00
424  4.2300000000000D+00  0.0000000000000D+00  0.0000000000000D+00
425  4.2400000000000D+00  0.0000000000000D+00  0.0000000000000D+00
426  4.2500000000000D+00  0.0000000000000D+00  0.0000000000000D+00
427  4.2600000000000D+00  0.0000000000000D+00  0.0000000000000D+00
428  4.2700000000000D+00  0.0000000000000D+00  0.0000000000000D+00
429  4.2800000000000D+00  0.0000000000000D+00  0.0000000000000D+00
430  4.2900000000000D+00  0.0000000000000D+00  0.0000000000000D+00
431  4.3000000000000D+00  0.0000000000000D+00  0.0000000000000D+00
432  4.3100000000000D+00  0.0000000000000D+00  0.0000000000000D+00
433  4.3200000000000D+00  0.0000000000000D+00  0.0000000000000D+00
434  4.3300000000000D+00  0.0000000000000D+00  0.0000000000000D+00
435  4.3400000000000D+00  0.0000000000000D+00  0.0000000000000D+00
436  4.3500000000000D+00  0.0000000000000D+00  0.0000000000000D+00
437  4.3600000000000D+00  0.0000000000000D+00  0.0000000000000D+00
438  4.3700000000000D+00  0.0000000000000D+00  0.0000000000000D+00
439  4.3800000000000D+00  0.0000000000000D+00  0.0000000000000D+00
440  4.3900000000000D+00  0.0000000000000D+00  0.0000000000000D+00
441  4.4000000000000D+00  0.0000000000000D+00  0.0000000000000D+00
442  4.4100000000000D+00  0.0000000000000D+00  0.0000000000000D+00
443  4.4200000000000D+00  0.0000000000000D+00  0.0000000000000D+00