
.Version 7.9.3 of ABINIT 
.(MPI version, prepared for a x86_64_linux_intel14.0 computer) 

.Copyright (C) 1998-2014 ABINIT group . 
 ABINIT comes with ABSOLUTELY NO WARRANTY.
 It is free software, and you are welcome to redistribute it
 under certain conditions (GNU General Public License,
 see ~abinit/COPYING or http://www.gnu.org/copyleft/gpl.txt).

 ABINIT is a project of the Universite Catholique de Louvain,
 Corning Inc. and other collaborators, see ~abinit/doc/developers/contributors.txt .
 Please read ~abinit/doc/users/acknowledgments.html for suggested
 acknowledgments of the ABINIT effort.
 For more information, see http://www.abinit.org .

.Starting date : Thu  4 Sep 2014.
- ( at 10h03 )
  
- input  file    -> ti256.in
- output file    -> ti256.out
- root for input  files -> TMP/ti256_input
- root for output files -> TMP/ti256_output
 
 
 Symmetries : space group P1 (#  1); Bravais aP (primitive triclinic)
================================================================================
 Values of the parameters that define the memory need of the present run
   intxc =         0  ionmov =         0    iscf =        17 xclevel =         2
  lmnmax =        18   lnmax =         6   mband =      2048  mffmem =         1
P  mgfft =       108   mkmem =         1 mpssoang=         3     mpw =       280
  mqgrid =      7175   natom =       256    nfft =     55296    nkpt =         2
  nloalg =         4  nspden =         1 nspinor =         1  nsppol =         1
    nsym =         1  n1xccc =         1  ntypat =         1  occopt =         3
Pmy_natom=        16
 PAW method is used; the additional fine FFT grid is defined by:
   mgfftf=       144    nfftf =     93312
================================================================================
P This job should need less than                     277.815 Mbytes of memory.
  Rough estimation (10% accuracy) of disk space for files :
_ WF disk file :    140.002 Mbytes ; DEN or POT disk file :      0.714 Mbytes.
================================================================================
 
--------------------------------------------------------------------------------
------------- Echo of variables that govern the present computation ------------
--------------------------------------------------------------------------------
-
- outvars: echo of selected default values                                      
-   accesswff0 =  0 , fftalg0 =312 , wfoptalg0 = 10
-
- outvars: echo of global parameters not present in the input file              
-  max_nthreads =    0
-
 -outvars: echo values of preprocessed input variables --------
        accesswff           1
            acell      5.0400000000E+01  2.5200000000E+01  2.5200000000E+01 Bohr
              amu      4.78800000E+01
           bandpp         256
      chksymbreak           0
             ecut      5.00000000E+00 Hartree
-          fftalg         302
      fft_opt_lob           2
           iprcch           6
           istwfk        1    1
              ixc          11
              kpt      5.00000000E-01  5.00000000E-01  5.00000000E-01
                       0.00000000E+00  0.00000000E+00  5.00000000E-01
           kptopt           0
P           mkmem           1
            natom         256
            nband        2048
            ngfft         108      64      64
          ngfftdg         144      72      72
             nkpt           2
-          npband           8
-           npfft           8
-           npkpt           2
-          np_slk          32
            nstep          20
             nsym           1
           ntypat           1
              occ      2.000000  2.000000  2.000000  2.000000  2.000000  2.000000
                       2.000000  2.000000  2.000000  2.000000  2.000000  2.000000
                       2.000000  2.000000  2.000000  2.000000  2.000000  2.000000
                       2.000000  2.000000  2.000000  2.000000  2.000000  2.000000
                       2.000000  2.000000  2.000000  2.000000  2.000000  2.000000
                       2.000000  2.000000  2.000000  2.000000  2.000000  2.000000
                       2.000000  2.000000  2.000000  2.000000  2.000000  2.000000
                       2.000000  2.000000  2.000000  2.000000  2.000000  2.000000
                       2.000000  2.000000  2.000000  2.000000  2.000000  2.000000
                       2.000000  2.000000  2.000000  2.000000  2.000000  2.000000
                       2.000000  2.000000  2.000000  2.000000  2.000000  2.000000
                       2.000000  2.000000  2.000000  2.000000  2.000000  2.000000
                       2.000000  2.000000  2.000000  2.000000  2.000000  2.000000
                       2.000000  2.000000  2.000000  2.000000  2.000000  2.000000
                       2.000000  2.000000  2.000000  2.000000  2.000000  2.000000
                       2.000000  2.000000  2.000000  2.000000  2.000000  2.000000
                       2.000000  2.000000  2.000000  2.000000  2.000000  2.000000
                       2.000000  2.000000  2.000000  2.000000  2.000000  2.000000
                       2.000000  2.000000  2.000000  2.000000  2.000000  2.000000
                       2.000000  2.000000  2.000000  2.000000  2.000000  2.000000
                       2.000000  2.000000  2.000000  2.000000  2.000000  2.000000
                       2.000000  2.000000  2.000000  2.000000  2.000000  2.000000
                       2.000000  2.000000  2.000000  2.000000  2.000000  2.000000
                       2.000000  2.000000  2.000000  2.000000  2.000000  2.000000
                       2.000000  2.000000  2.000000  2.000000  2.000000  2.000000
                       2.000000  2.000000  2.000000  2.000000  2.000000  2.000000
                       2.000000  2.000000  2.000000  2.000000  2.000000  2.000000
                       2.000000  2.000000  2.000000  2.000000  2.000000  2.000000
                       2.000000  2.000000  2.000000  2.000000  2.000000  2.000000
                       2.000000  2.000000  2.000000  2.000000  2.000000  2.000000
                       2.000000  2.000000  2.000000  2.000000  2.000000  2.000000
                       2.000000  2.000000  2.000000  2.000000  2.000000  2.000000
                       2.000000  2.000000  2.000000  2.000000  2.000000  2.000000
                       2.000000  2.000000  2.000000  2.000000  2.000000  2.000000
                       2.000000  2.000000  2.000000  2.000000  2.000000  2.000000
                       2.000000  2.000000  2.000000  2.000000  2.000000  2.000000
                       2.000000  2.000000  2.000000  2.000000  2.000000  2.000000
                       2.000000  2.000000  2.000000  2.000000  2.000000  2.000000
                       2.000000  2.000000  2.000000  2.000000  2.000000  2.000000
                       2.000000  2.000000  2.000000  2.000000  2.000000  2.000000
                       2.000000  2.000000  2.000000  2.000000  2.000000  2.000000
                       2.000000  2.000000  2.000000  2.000000  2.000000  2.000000
                       2.000000  2.000000  2.000000  2.000000  2.000000  2.000000
                       2.000000  2.000000  2.000000  2.000000  2.000000  2.000000
                       2.000000  2.000000  2.000000  2.000000  2.000000  2.000000
                       2.000000  2.000000  2.000000  2.000000  2.000000  2.000000
                       2.000000  2.000000  2.000000  2.000000  2.000000  2.000000
                       2.000000  2.000000  2.000000  2.000000  2.000000  2.000000
                       2.000000  2.000000  2.000000  2.000000  2.000000  2.000000
                       2.000000  2.000000  2.000000  2.000000  2.000000  2.000000
                       2.000000  2.000000  2.000000  2.000000  2.000000  2.000000
                       2.000000  2.000000  2.000000  2.000000  2.000000  2.000000
                       2.000000  2.000000  2.000000  2.000000  2.000000  2.000000
                       2.000000  2.000000  2.000000  2.000000  2.000000  2.000000
                       2.000000  2.000000  2.000000  2.000000  2.000000  2.000000
                       2.000000  2.000000  2.000000  2.000000  2.000000  2.000000
                       2.000000  2.000000  2.000000  2.000000  2.000000  2.000000
                       2.000000  2.000000  2.000000  2.000000  2.000000  2.000000
                       2.000000  2.000000  2.000000  2.000000  2.000000  2.000000
                       2.000000  2.000000  2.000000  2.000000  2.000000  2.000000
                       2.000000  2.000000  2.000000  2.000000  2.000000  2.000000
                       2.000000  2.000000  2.000000  2.000000  2.000000  2.000000
                       2.000000  2.000000  2.000000  2.000000  2.000000  2.000000
                       2.000000  2.000000  2.000000  2.000000  2.000000  2.000000
                       2.000000  2.000000  2.000000  2.000000  2.000000  2.000000
                       2.000000  2.000000  2.000000  2.000000  2.000000  2.000000
                       2.000000  2.000000  2.000000  2.000000  2.000000  2.000000
                       2.000000  2.000000  2.000000  2.000000  2.000000  2.000000
                       2.000000  2.000000  2.000000  2.000000  2.000000  2.000000
                       2.000000  2.000000  2.000000  2.000000  2.000000  2.000000
                       2.000000  2.000000  2.000000  2.000000  2.000000  2.000000
                       2.000000  2.000000  2.000000  2.000000  2.000000  2.000000
                       2.000000  2.000000  2.000000  2.000000  2.000000  2.000000
                       2.000000  2.000000  2.000000  2.000000  2.000000  2.000000
                       2.000000  2.000000  2.000000  2.000000  2.000000  2.000000
                       2.000000  2.000000  2.000000  2.000000  2.000000  2.000000
                       2.000000  2.000000  2.000000  2.000000  2.000000  2.000000
                       2.000000  2.000000  2.000000  2.000000  2.000000  2.000000
                       2.000000  2.000000  2.000000  2.000000  2.000000  2.000000
                       2.000000  2.000000  2.000000  2.000000  2.000000  2.000000
                       2.000000  2.000000  2.000000  2.000000  2.000000  2.000000
                       2.000000  2.000000  2.000000  2.000000  2.000000  2.000000
                       2.000000  2.000000  2.000000  2.000000  2.000000  2.000000
                       2.000000  2.000000  2.000000  2.000000  2.000000  2.000000
                       2.000000  2.000000  2.000000  2.000000  2.000000  2.000000
                       2.000000  2.000000  2.000000  2.000000  2.000000  2.000000
                       2.000000  2.000000  2.000000  2.000000  2.000000  2.000000
                       2.000000  2.000000  2.000000  2.000000  2.000000  2.000000
                       2.000000  2.000000  2.000000  2.000000  2.000000  2.000000
                       2.000000  2.000000  2.000000  2.000000  2.000000  2.000000
                       2.000000  2.000000  2.000000  2.000000  2.000000  2.000000
                       2.000000  2.000000  2.000000  2.000000  2.000000  2.000000
                       2.000000  2.000000  2.000000  2.000000  2.000000  2.000000
                       2.000000  2.000000  2.000000  2.000000  2.000000  2.000000
                       2.000000  2.000000  2.000000  2.000000  2.000000  2.000000
                       2.000000  2.000000  2.000000  2.000000  2.000000  2.000000
                       2.000000  2.000000  2.000000  2.000000  2.000000  2.000000
                       2.000000  2.000000  2.000000  2.000000  2.000000  2.000000
                       2.000000  2.000000  2.000000  2.000000  2.000000  2.000000
                       2.000000  2.000000  2.000000  2.000000  2.000000  2.000000
                       2.000000  2.000000  2.000000  2.000000  2.000000  2.000000
                       2.000000  2.000000  2.000000  2.000000  2.000000  2.000000
                       2.000000  2.000000  2.000000  2.000000  2.000000  2.000000
                       2.000000  2.000000  2.000000  2.000000  2.000000  2.000000
                       2.000000  2.000000  2.000000  2.000000  2.000000  2.000000
                       2.000000  2.000000  2.000000  2.000000  2.000000  2.000000
                       2.000000  2.000000  2.000000  2.000000  2.000000  2.000000
                       2.000000  2.000000  2.000000  2.000000  2.000000  2.000000
                       2.000000  2.000000  2.000000  2.000000  2.000000  2.000000
                       2.000000  2.000000  2.000000  2.000000  2.000000  2.000000
                       2.000000  2.000000  2.000000  2.000000  2.000000  2.000000
                       2.000000  2.000000  2.000000  2.000000  2.000000  2.000000
                       2.000000  2.000000  2.000000  2.000000  2.000000  2.000000
                       2.000000  2.000000  2.000000  2.000000  2.000000  2.000000
                       2.000000  2.000000  2.000000  2.000000  2.000000  2.000000
                       2.000000  2.000000  2.000000  2.000000  2.000000  2.000000
                       2.000000  2.000000  2.000000  2.000000  2.000000  2.000000
                       2.000000  2.000000  2.000000  2.000000  2.000000  2.000000
                       2.000000  2.000000  2.000000  2.000000  2.000000  2.000000
                       2.000000  2.000000  2.000000  2.000000  2.000000  2.000000
                       2.000000  2.000000  2.000000  2.000000  2.000000  2.000000
                       2.000000  2.000000  2.000000  2.000000  2.000000  2.000000
                       2.000000  2.000000  2.000000  2.000000  2.000000  2.000000
                       2.000000  2.000000  2.000000  2.000000  2.000000  2.000000
                       2.000000  2.000000  2.000000  2.000000  2.000000  2.000000
                       2.000000  2.000000  2.000000  2.000000  2.000000  2.000000
                       2.000000  2.000000  2.000000  2.000000  2.000000  2.000000
                       2.000000  2.000000  2.000000  2.000000  2.000000  2.000000
                       2.000000  2.000000  2.000000  2.000000  2.000000  2.000000
                       2.000000  2.000000  2.000000  2.000000  2.000000  2.000000
                       2.000000  2.000000  2.000000  2.000000  2.000000  2.000000
                       2.000000  2.000000  2.000000  2.000000  2.000000  2.000000
                       2.000000  2.000000  2.000000  2.000000  2.000000  2.000000
                       2.000000  2.000000  2.000000  2.000000  2.000000  2.000000
                       2.000000  2.000000  2.000000  2.000000  2.000000  2.000000
                       2.000000  2.000000  2.000000  2.000000  2.000000  2.000000
                       2.000000  2.000000  2.000000  2.000000  2.000000  2.000000
                       2.000000  2.000000  2.000000  2.000000  2.000000  2.000000
                       2.000000  2.000000  2.000000  2.000000  2.000000  2.000000
                       2.000000  2.000000  2.000000  2.000000  2.000000  2.000000
                       2.000000  2.000000  2.000000  2.000000  2.000000  2.000000
                       2.000000  2.000000  2.000000  2.000000  2.000000  2.000000
                       2.000000  2.000000  2.000000  2.000000  2.000000  2.000000
                       2.000000  2.000000  2.000000  2.000000  2.000000  2.000000
                       2.000000  2.000000  2.000000  2.000000  2.000000  2.000000
                       2.000000  2.000000  2.000000  2.000000  2.000000  2.000000
                       2.000000  2.000000  2.000000  2.000000  2.000000  2.000000
                       2.000000  2.000000  2.000000  2.000000  2.000000  2.000000
                       2.000000  2.000000  2.000000  2.000000  2.000000  2.000000
                       2.000000  2.000000  2.000000  2.000000  2.000000  2.000000
                       2.000000  2.000000  2.000000  2.000000  2.000000  2.000000
                       2.000000  2.000000  2.000000  2.000000  2.000000  2.000000
                       2.000000  2.000000  2.000000  2.000000  2.000000  2.000000
                       2.000000  2.000000  2.000000  2.000000  2.000000  2.000000
                       2.000000  2.000000  2.000000  2.000000  2.000000  2.000000
                       2.000000  2.000000  2.000000  2.000000  2.000000  2.000000
                       2.000000  2.000000  2.000000  2.000000  2.000000  2.000000
                       2.000000  2.000000  2.000000  2.000000  2.000000  2.000000
                       2.000000  2.000000  2.000000  2.000000  2.000000  2.000000
                       2.000000  2.000000  2.000000  2.000000  2.000000  2.000000
                       2.000000  2.000000  2.000000  2.000000  2.000000  2.000000
                       2.000000  2.000000  2.000000  2.000000  2.000000  2.000000
                       2.000000  2.000000  2.000000  2.000000  2.000000  2.000000
                       2.000000  2.000000  2.000000  2.000000  2.000000  2.000000
                       2.000000  2.000000  2.000000  2.000000  2.000000  2.000000
                       2.000000  2.000000  2.000000  2.000000  2.000000  2.000000
                       2.000000  2.000000  2.000000  2.000000  2.000000  2.000000
                       2.000000  2.000000  2.000000  2.000000  2.000000  2.000000
                       2.000000  2.000000  2.000000  2.000000  2.000000  2.000000
                       2.000000  2.000000  2.000000  2.000000  2.000000  2.000000
                       2.000000  2.000000  2.000000  2.000000  2.000000  2.000000
                       2.000000  2.000000  2.000000  2.000000  2.000000  2.000000
                       2.000000  2.000000  2.000000  2.000000  2.000000  2.000000
                       2.000000  2.000000  2.000000  2.000000  2.000000  2.000000
                       2.000000  2.000000  2.000000  2.000000  2.000000  2.000000
                       2.000000  2.000000  2.000000  2.000000  2.000000  2.000000
                       2.000000  2.000000  2.000000  2.000000  2.000000  2.000000
                       2.000000  2.000000  2.000000  2.000000  2.000000  2.000000
                       2.000000  2.000000  2.000000  2.000000  2.000000  2.000000
                       2.000000  2.000000  2.000000  2.000000  2.000000  2.000000
                       2.000000  2.000000  2.000000  2.000000  2.000000  2.000000
                       2.000000  2.000000  2.000000  2.000000  2.000000  2.000000
                       2.000000  2.000000  2.000000  2.000000  2.000000  2.000000
                       2.000000  2.000000  2.000000  2.000000  2.000000  2.000000
                       2.000000  2.000000  2.000000  2.000000  2.000000  2.000000
                       2.000000  2.000000  2.000000  2.000000  2.000000  2.000000
                       2.000000  2.000000  2.000000  2.000000  2.000000  2.000000
                       2.000000  2.000000  2.000000  2.000000  2.000000  2.000000
                       2.000000  2.000000  2.000000  2.000000  2.000000  2.000000
                       2.000000  2.000000  2.000000  2.000000  2.000000  2.000000
                       2.000000  2.000000  2.000000  2.000000  2.000000  2.000000
                       2.000000  2.000000  2.000000  2.000000  2.000000  2.000000
                       2.000000  2.000000  2.000000  2.000000  2.000000  2.000000
                       2.000000  2.000000  2.000000  2.000000  2.000000  2.000000
                       2.000000  2.000000  2.000000  2.000000  2.000000  2.000000
                       2.000000  2.000000  2.000000  2.000000  2.000000  2.000000
                       2.000000  2.000000  2.000000  2.000000  2.000000  2.000000
                       2.000000  2.000000  2.000000  2.000000  2.000000  2.000000
                       2.000000  2.000000  2.000000  2.000000  2.000000  2.000000
                       2.000000  2.000000  2.000000  2.000000  2.000000  2.000000
                       2.000000  2.000000  2.000000  2.000000  2.000000  2.000000
                       2.000000  2.000000  2.000000  2.000000  2.000000  2.000000
                       2.000000  2.000000  2.000000  2.000000  2.000000  2.000000
                       2.000000  2.000000  2.000000  2.000000  2.000000  2.000000
                       2.000000  2.000000  2.000000  2.000000  2.000000  2.000000
                       2.000000  2.000000  2.000000  2.000000  2.000000  2.000000
                       2.000000  2.000000  2.000000  2.000000  2.000000  2.000000
                       2.000000  2.000000  2.000000  2.000000  2.000000  2.000000
                       2.000000  2.000000  2.000000  2.000000  2.000000  2.000000
                       2.000000  2.000000  2.000000  2.000000  2.000000  2.000000
                       2.000000  2.000000  2.000000  2.000000  2.000000  2.000000
                       2.000000  2.000000  2.000000  2.000000  2.000000  2.000000
                       2.000000  2.000000  2.000000  2.000000  2.000000  2.000000
                       2.000000  2.000000  2.000000  2.000000  2.000000  2.000000
                       2.000000  2.000000  2.000000  2.000000  2.000000  2.000000
                       2.000000  2.000000  2.000000  2.000000  2.000000  2.000000
                       2.000000  2.000000  2.000000  2.000000  2.000000  2.000000
                       2.000000  2.000000  2.000000  2.000000  2.000000  2.000000
                       2.000000  2.000000  2.000000  2.000000  2.000000  2.000000
                       2.000000  2.000000  2.000000  2.000000  2.000000  2.000000
                       2.000000  2.000000  2.000000  2.000000  2.000000  2.000000
                       2.000000  2.000000  2.000000  2.000000  2.000000  2.000000
                       2.000000  2.000000  2.000000  2.000000  2.000000  2.000000
                       2.000000  2.000000  2.000000  2.000000  2.000000  2.000000
                       2.000000  2.000000  2.000000  2.000000  2.000000  2.000000
                       2.000000  2.000000  2.000000  2.000000  2.000000  2.000000
                       2.000000  2.000000  2.000000  2.000000  2.000000  2.000000
                       2.000000  2.000000  2.000000  2.000000  2.000000  2.000000
                       2.000000  2.000000  2.000000  2.000000  2.000000  2.000000
                       2.000000  2.000000  2.000000  2.000000  2.000000  2.000000
                       2.000000  2.000000  2.000000  2.000000  2.000000  2.000000
                       2.000000  2.000000  2.000000  2.000000  2.000000  2.000000
                       2.000000  2.000000  2.000000  2.000000  2.000000  2.000000
                       2.000000  2.000000  2.000000  2.000000  2.000000  2.000000
                       2.000000  2.000000  2.000000  2.000000  2.000000  2.000000
                       2.000000  2.000000  2.000000  2.000000  2.000000  2.000000
                       2.000000  2.000000  2.000000  2.000000  2.000000  2.000000
                       2.000000  2.000000  2.000000  2.000000  2.000000  2.000000
                       2.000000  2.000000  2.000000  2.000000  2.000000  2.000000
                       2.000000  2.000000  2.000000  2.000000  2.000000  2.000000
                       2.000000  2.000000  2.000000  2.000000  2.000000  2.000000
                       2.000000  2.000000  2.000000  2.000000  2.000000  2.000000
                       2.000000  2.000000  2.000000  2.000000  2.000000  2.000000
                       2.000000  2.000000  2.000000  2.000000  2.000000  2.000000
                       2.000000  2.000000  2.000000  2.000000  2.000000  2.000000
                       2.000000  2.000000  2.000000  2.000000  2.000000  2.000000
                       2.000000  2.000000  2.000000  2.000000  2.000000  2.000000
                       2.000000  2.000000  2.000000  2.000000  2.000000  2.000000
                       2.000000  2.000000  2.000000  2.000000  2.000000  2.000000
                       2.000000  2.000000  2.000000  2.000000  2.000000  2.000000
                       2.000000  2.000000  2.000000  2.000000  2.000000  2.000000
                       2.000000  2.000000  2.000000  2.000000  2.000000  2.000000
                       2.000000  2.000000  2.000000  2.000000  2.000000  2.000000
                       2.000000  2.000000  2.000000  2.000000  2.000000  2.000000
                       2.000000  2.000000  2.000000  2.000000  2.000000  2.000000
                       2.000000  2.000000  2.000000  2.000000  2.000000  2.000000
                       0.000000  0.000000  0.000000  0.000000  0.000000  0.000000
                       0.000000  0.000000  0.000000  0.000000  0.000000  0.000000
                       0.000000  0.000000  0.000000  0.000000  0.000000  0.000000
                       0.000000  0.000000  0.000000  0.000000  0.000000  0.000000
                       0.000000  0.000000  0.000000  0.000000  0.000000  0.000000
                       0.000000  0.000000  0.000000  0.000000  0.000000  0.000000
                       0.000000  0.000000  0.000000  0.000000  0.000000  0.000000
                       0.000000  0.000000  0.000000  0.000000  0.000000  0.000000
                       0.000000  0.000000  0.000000  0.000000  0.000000  0.000000
                       0.000000  0.000000  0.000000  0.000000  0.000000  0.000000
                       0.000000  0.000000  0.000000  0.000000  0.000000  0.000000
                       0.000000  0.000000  0.000000  0.000000  0.000000  0.000000
                       0.000000  0.000000  0.000000  0.000000  0.000000  0.000000
                       0.000000  0.000000  0.000000  0.000000  0.000000  0.000000
                       0.000000  0.000000  0.000000  0.000000  0.000000  0.000000
                       0.000000  0.000000  0.000000  0.000000  0.000000  0.000000
                       0.000000  0.000000  0.000000  0.000000  0.000000  0.000000
                       0.000000  0.000000  0.000000  0.000000  0.000000  0.000000
                       0.000000  0.000000  0.000000  0.000000  0.000000  0.000000
                       0.000000  0.000000  0.000000  0.000000  0.000000  0.000000
                       0.000000  0.000000  0.000000  0.000000  0.000000  0.000000
                       0.000000  0.000000  0.000000  0.000000  0.000000  0.000000
                       0.000000  0.000000  0.000000  0.000000  0.000000  0.000000
                       0.000000  0.000000  0.000000  0.000000  0.000000  0.000000
                       0.000000  0.000000  0.000000  0.000000  0.000000  0.000000
                       0.000000  0.000000  0.000000  0.000000  0.000000  0.000000
                       0.000000  0.000000  0.000000  0.000000  0.000000  0.000000
                       0.000000  0.000000  0.000000  0.000000  0.000000  0.000000
                       0.000000  0.000000  0.000000  0.000000  0.000000  0.000000
                       0.000000  0.000000  0.000000  0.000000  0.000000  0.000000
                       0.000000  0.000000  0.000000  0.000000  0.000000  0.000000
                       0.000000  0.000000  0.000000  0.000000  0.000000  0.000000
                       0.000000  0.000000  0.000000  0.000000  0.000000  0.000000
                       0.000000  0.000000  0.000000  0.000000  0.000000  0.000000
                       0.000000  0.000000  0.000000  0.000000  0.000000  0.000000
                       0.000000  0.000000  0.000000  0.000000  0.000000  0.000000
                       0.000000  0.000000  0.000000  0.000000  0.000000  0.000000
                       0.000000  0.000000  0.000000  0.000000  0.000000  0.000000
                       0.000000  0.000000  0.000000  0.000000  0.000000  0.000000
                       0.000000  0.000000  0.000000  0.000000  0.000000  0.000000
                       0.000000  0.000000  0.000000  0.000000  0.000000  0.000000
                       0.000000  0.000000  0.000000  0.000000  0.000000  0.000000
                       0.000000  0.000000  0.000000  0.000000  0.000000  0.000000
                       0.000000  0.000000  0.000000  0.000000  0.000000  0.000000
                       0.000000  0.000000  0.000000  0.000000  0.000000  0.000000
                       0.000000  0.000000  0.000000  0.000000  0.000000  0.000000
                       0.000000  0.000000  0.000000  0.000000  0.000000  0.000000
                       0.000000  0.000000  0.000000  0.000000  0.000000  0.000000
                       0.000000  0.000000  0.000000  0.000000  0.000000  0.000000
                       0.000000  0.000000  0.000000  0.000000  0.000000  0.000000
                       0.000000  0.000000  0.000000  0.000000  0.000000  0.000000
                       0.000000  0.000000  0.000000  0.000000  0.000000  0.000000
                       0.000000  0.000000  0.000000  0.000000  0.000000  0.000000
                       0.000000  0.000000  0.000000  0.000000  0.000000  0.000000
                       0.000000  0.000000  0.000000  0.000000  0.000000  0.000000
                       0.000000  0.000000  0.000000  0.000000  0.000000  0.000000
                       0.000000  0.000000  0.000000  0.000000  0.000000  0.000000
                       0.000000  0.000000  0.000000  0.000000  0.000000  0.000000
                       0.000000  0.000000  0.000000  0.000000  0.000000  0.000000
                       0.000000  0.000000  0.000000  0.000000  0.000000  0.000000
                       0.000000  0.000000  0.000000  0.000000  0.000000  0.000000
                       0.000000  0.000000  0.000000  0.000000  0.000000  0.000000
                       0.000000  0.000000  0.000000  0.000000  0.000000  0.000000
                       0.000000  0.000000  0.000000  0.000000  0.000000  0.000000
                       0.000000  0.000000  0.000000  0.000000  0.000000  0.000000
                       0.000000  0.000000  0.000000  0.000000  0.000000  0.000000
                       0.000000  0.000000  0.000000  0.000000  0.000000  0.000000
                       0.000000  0.000000  0.000000  0.000000  0.000000  0.000000
                       0.000000  0.000000  0.000000  0.000000  0.000000  0.000000
                       0.000000  0.000000  0.000000  0.000000  0.000000  0.000000
                       0.000000  0.000000  0.000000  0.000000  0.000000  0.000000
                       0.000000  0.000000  0.000000  0.000000  0.000000  0.000000
                       0.000000  0.000000  0.000000  0.000000  0.000000  0.000000
                       0.000000  0.000000  0.000000  0.000000  0.000000  0.000000
                       0.000000  0.000000  0.000000  0.000000  0.000000  0.000000
                       0.000000  0.000000  0.000000  0.000000  0.000000  0.000000
                       0.000000  0.000000  0.000000  0.000000  0.000000  0.000000
                       0.000000  0.000000  0.000000  0.000000  0.000000  0.000000
                       0.000000  0.000000  0.000000  0.000000  0.000000  0.000000
                       0.000000  0.000000  0.000000  0.000000  0.000000  0.000000
                       0.000000  0.000000  0.000000  0.000000  0.000000  0.000000
                       0.000000  0.000000  0.000000  0.000000  0.000000  0.000000
                       0.000000  0.000000  0.000000  0.000000  0.000000  0.000000
                       0.000000  0.000000  0.000000  0.000000  0.000000  0.000000
                       0.000000  0.000000  0.000000  0.000000  0.000000  0.000000
                       0.000000  0.000000
                       2.000000  2.000000  2.000000  2.000000  2.000000  2.000000
                       2.000000  2.000000  2.000000  2.000000  2.000000  2.000000
                       2.000000  2.000000  2.000000  2.000000  2.000000  2.000000
                       2.000000  2.000000  2.000000  2.000000  2.000000  2.000000
                       2.000000  2.000000  2.000000  2.000000  2.000000  2.000000
                       2.000000  2.000000  2.000000  2.000000  2.000000  2.000000
                       2.000000  2.000000  2.000000  2.000000  2.000000  2.000000
                       2.000000  2.000000  2.000000  2.000000  2.000000  2.000000
                       2.000000  2.000000  2.000000  2.000000  2.000000  2.000000
                       2.000000  2.000000  2.000000  2.000000  2.000000  2.000000
                       2.000000  2.000000  2.000000  2.000000  2.000000  2.000000
                       2.000000  2.000000  2.000000  2.000000  2.000000  2.000000
                       2.000000  2.000000  2.000000  2.000000  2.000000  2.000000
                       2.000000  2.000000  2.000000  2.000000  2.000000  2.000000
                       2.000000  2.000000  2.000000  2.000000  2.000000  2.000000
                       2.000000  2.000000  2.000000  2.000000  2.000000  2.000000
                       2.000000  2.000000  2.000000  2.000000  2.000000  2.000000
                       2.000000  2.000000  2.000000  2.000000  2.000000  2.000000
                       2.000000  2.000000  2.000000  2.000000  2.000000  2.000000
                       2.000000  2.000000  2.000000  2.000000  2.000000  2.000000
                       2.000000  2.000000  2.000000  2.000000  2.000000  2.000000
                       2.000000  2.000000  2.000000  2.000000  2.000000  2.000000
                       2.000000  2.000000  2.000000  2.000000  2.000000  2.000000
                       2.000000  2.000000  2.000000  2.000000  2.000000  2.000000
                       2.000000  2.000000  2.000000  2.000000  2.000000  2.000000
                       2.000000  2.000000  2.000000  2.000000  2.000000  2.000000
                       2.000000  2.000000  2.000000  2.000000  2.000000  2.000000
                       2.000000  2.000000  2.000000  2.000000  2.000000  2.000000
                       2.000000  2.000000  2.000000  2.000000  2.000000  2.000000
                       2.000000  2.000000  2.000000  2.000000  2.000000  2.000000
                       2.000000  2.000000  2.000000  2.000000  2.000000  2.000000
                       2.000000  2.000000  2.000000  2.000000  2.000000  2.000000
                       2.000000  2.000000  2.000000  2.000000  2.000000  2.000000
                       2.000000  2.000000  2.000000  2.000000  2.000000  2.000000
                       2.000000  2.000000  2.000000  2.000000  2.000000  2.000000
                       2.000000  2.000000  2.000000  2.000000  2.000000  2.000000
                       2.000000  2.000000  2.000000  2.000000  2.000000  2.000000
                       2.000000  2.000000  2.000000  2.000000  2.000000  2.000000
                       2.000000  2.000000  2.000000  2.000000  2.000000  2.000000
                       2.000000  2.000000  2.000000  2.000000  2.000000  2.000000
                       2.000000  2.000000  2.000000  2.000000  2.000000  2.000000
                       2.000000  2.000000  2.000000  2.000000  2.000000  2.000000
                       2.000000  2.000000  2.000000  2.000000  2.000000  2.000000
                       2.000000  2.000000  2.000000  2.000000  2.000000  2.000000
                       2.000000  2.000000  2.000000  2.000000  2.000000  2.000000
                       2.000000  2.000000  2.000000  2.000000  2.000000  2.000000
                       2.000000  2.000000  2.000000  2.000000  2.000000  2.000000
                       2.000000  2.000000  2.000000  2.000000  2.000000  2.000000
                       2.000000  2.000000  2.000000  2.000000  2.000000  2.000000
                       2.000000  2.000000  2.000000  2.000000  2.000000  2.000000
                       2.000000  2.000000  2.000000  2.000000  2.000000  2.000000
                       2.000000  2.000000  2.000000  2.000000  2.000000  2.000000
                       2.000000  2.000000  2.000000  2.000000  2.000000  2.000000
                       2.000000  2.000000  2.000000  2.000000  2.000000  2.000000
                       2.000000  2.000000  2.000000  2.000000  2.000000  2.000000
                       2.000000  2.000000  2.000000  2.000000  2.000000  2.000000
                       2.000000  2.000000  2.000000  2.000000  2.000000  2.000000
                       2.000000  2.000000  2.000000  2.000000  2.000000  2.000000
                       2.000000  2.000000  2.000000  2.000000  2.000000  2.000000
                       2.000000  2.000000  2.000000  2.000000  2.000000  2.000000
                       2.000000  2.000000  2.000000  2.000000  2.000000  2.000000
                       2.000000  2.000000  2.000000  2.000000  2.000000  2.000000
                       2.000000  2.000000  2.000000  2.000000  2.000000  2.000000
                       2.000000  2.000000  2.000000  2.000000  2.000000  2.000000
                       2.000000  2.000000  2.000000  2.000000  2.000000  2.000000
                       2.000000  2.000000  2.000000  2.000000  2.000000  2.000000
                       2.000000  2.000000  2.000000  2.000000  2.000000  2.000000
                       2.000000  2.000000  2.000000  2.000000  2.000000  2.000000
                       2.000000  2.000000  2.000000  2.000000  2.000000  2.000000
                       2.000000  2.000000  2.000000  2.000000  2.000000  2.000000
                       2.000000  2.000000  2.000000  2.000000  2.000000  2.000000
                       2.000000  2.000000  2.000000  2.000000  2.000000  2.000000
                       2.000000  2.000000  2.000000  2.000000  2.000000  2.000000
                       2.000000  2.000000  2.000000  2.000000  2.000000  2.000000
                       2.000000  2.000000  2.000000  2.000000  2.000000  2.000000
                       2.000000  2.000000  2.000000  2.000000  2.000000  2.000000
                       2.000000  2.000000  2.000000  2.000000  2.000000  2.000000
                       2.000000  2.000000  2.000000  2.000000  2.000000  2.000000
                       2.000000  2.000000  2.000000  2.000000  2.000000  2.000000
                       2.000000  2.000000  2.000000  2.000000  2.000000  2.000000
                       2.000000  2.000000  2.000000  2.000000  2.000000  2.000000
                       2.000000  2.000000  2.000000  2.000000  2.000000  2.000000
                       2.000000  2.000000  2.000000  2.000000  2.000000  2.000000
                       2.000000  2.000000  2.000000  2.000000  2.000000  2.000000
                       2.000000  2.000000  2.000000  2.000000  2.000000  2.000000
                       2.000000  2.000000  2.000000  2.000000  2.000000  2.000000
                       2.000000  2.000000  2.000000  2.000000  2.000000  2.000000
                       2.000000  2.000000  2.000000  2.000000  2.000000  2.000000
                       2.000000  2.000000  2.000000  2.000000  2.000000  2.000000
                       2.000000  2.000000  2.000000  2.000000  2.000000  2.000000
                       2.000000  2.000000  2.000000  2.000000  2.000000  2.000000
                       2.000000  2.000000  2.000000  2.000000  2.000000  2.000000
                       2.000000  2.000000  2.000000  2.000000  2.000000  2.000000
                       2.000000  2.000000  2.000000  2.000000  2.000000  2.000000
                       2.000000  2.000000  2.000000  2.000000  2.000000  2.000000
                       2.000000  2.000000  2.000000  2.000000  2.000000  2.000000
                       2.000000  2.000000  2.000000  2.000000  2.000000  2.000000
                       2.000000  2.000000  2.000000  2.000000  2.000000  2.000000
                       2.000000  2.000000  2.000000  2.000000  2.000000  2.000000
                       2.000000  2.000000  2.000000  2.000000  2.000000  2.000000
                       2.000000  2.000000  2.000000  2.000000  2.000000  2.000000
                       2.000000  2.000000  2.000000  2.000000  2.000000  2.000000
                       2.000000  2.000000  2.000000  2.000000  2.000000  2.000000
                       2.000000  2.000000  2.000000  2.000000  2.000000  2.000000
                       2.000000  2.000000  2.000000  2.000000  2.000000  2.000000
                       2.000000  2.000000  2.000000  2.000000  2.000000  2.000000
                       2.000000  2.000000  2.000000  2.000000  2.000000  2.000000
                       2.000000  2.000000  2.000000  2.000000  2.000000  2.000000
                       2.000000  2.000000  2.000000  2.000000  2.000000  2.000000
                       2.000000  2.000000  2.000000  2.000000  2.000000  2.000000
                       2.000000  2.000000  2.000000  2.000000  2.000000  2.000000
                       2.000000  2.000000  2.000000  2.000000  2.000000  2.000000
                       2.000000  2.000000  2.000000  2.000000  2.000000  2.000000
                       2.000000  2.000000  2.000000  2.000000  2.000000  2.000000
                       2.000000  2.000000  2.000000  2.000000  2.000000  2.000000
                       2.000000  2.000000  2.000000  2.000000  2.000000  2.000000
                       2.000000  2.000000  2.000000  2.000000  2.000000  2.000000
                       2.000000  2.000000  2.000000  2.000000  2.000000  2.000000
                       2.000000  2.000000  2.000000  2.000000  2.000000  2.000000
                       2.000000  2.000000  2.000000  2.000000  2.000000  2.000000
                       2.000000  2.000000  2.000000  2.000000  2.000000  2.000000
                       2.000000  2.000000  2.000000  2.000000  2.000000  2.000000
                       2.000000  2.000000  2.000000  2.000000  2.000000  2.000000
                       2.000000  2.000000  2.000000  2.000000  2.000000  2.000000
                       2.000000  2.000000  2.000000  2.000000  2.000000  2.000000
                       2.000000  2.000000  2.000000  2.000000  2.000000  2.000000
                       2.000000  2.000000  2.000000  2.000000  2.000000  2.000000
                       2.000000  2.000000  2.000000  2.000000  2.000000  2.000000
                       2.000000  2.000000  2.000000  2.000000  2.000000  2.000000
                       2.000000  2.000000  2.000000  2.000000  2.000000  2.000000
                       2.000000  2.000000  2.000000  2.000000  2.000000  2.000000
                       2.000000  2.000000  2.000000  2.000000  2.000000  2.000000
                       2.000000  2.000000  2.000000  2.000000  2.000000  2.000000
                       2.000000  2.000000  2.000000  2.000000  2.000000  2.000000
                       2.000000  2.000000  2.000000  2.000000  2.000000  2.000000
                       2.000000  2.000000  2.000000  2.000000  2.000000  2.000000
                       2.000000  2.000000  2.000000  2.000000  2.000000  2.000000
                       2.000000  2.000000  2.000000  2.000000  2.000000  2.000000
                       2.000000  2.000000  2.000000  2.000000  2.000000  2.000000
                       2.000000  2.000000  2.000000  2.000000  2.000000  2.000000
                       2.000000  2.000000  2.000000  2.000000  2.000000  2.000000
                       2.000000  2.000000  2.000000  2.000000  2.000000  2.000000
                       2.000000  2.000000  2.000000  2.000000  2.000000  2.000000
                       2.000000  2.000000  2.000000  2.000000  2.000000  2.000000
                       2.000000  2.000000  2.000000  2.000000  2.000000  2.000000
                       2.000000  2.000000  2.000000  2.000000  2.000000  2.000000
                       2.000000  2.000000  2.000000  2.000000  2.000000  2.000000
                       2.000000  2.000000  2.000000  2.000000  2.000000  2.000000
                       2.000000  2.000000  2.000000  2.000000  2.000000  2.000000
                       2.000000  2.000000  2.000000  2.000000  2.000000  2.000000
                       2.000000  2.000000  2.000000  2.000000  2.000000  2.000000
                       2.000000  2.000000  2.000000  2.000000  2.000000  2.000000
                       2.000000  2.000000  2.000000  2.000000  2.000000  2.000000
                       2.000000  2.000000  2.000000  2.000000  2.000000  2.000000
                       2.000000  2.000000  2.000000  2.000000  2.000000  2.000000
                       2.000000  2.000000  2.000000  2.000000  2.000000  2.000000
                       2.000000  2.000000  2.000000  2.000000  2.000000  2.000000
                       2.000000  2.000000  2.000000  2.000000  2.000000  2.000000
                       2.000000  2.000000  2.000000  2.000000  2.000000  2.000000
                       2.000000  2.000000  2.000000  2.000000  2.000000  2.000000
                       2.000000  2.000000  2.000000  2.000000  2.000000  2.000000
                       2.000000  2.000000  2.000000  2.000000  2.000000  2.000000
                       2.000000  2.000000  2.000000  2.000000  2.000000  2.000000
                       2.000000  2.000000  2.000000  2.000000  2.000000  2.000000
                       2.000000  2.000000  2.000000  2.000000  2.000000  2.000000
                       2.000000  2.000000  2.000000  2.000000  2.000000  2.000000
                       2.000000  2.000000  2.000000  2.000000  2.000000  2.000000
                       2.000000  2.000000  2.000000  2.000000  2.000000  2.000000
                       2.000000  2.000000  2.000000  2.000000  2.000000  2.000000
                       2.000000  2.000000  2.000000  2.000000  2.000000  2.000000
                       2.000000  2.000000  2.000000  2.000000  2.000000  2.000000
                       2.000000  2.000000  2.000000  2.000000  2.000000  2.000000
                       2.000000  2.000000  2.000000  2.000000  2.000000  2.000000
                       2.000000  2.000000  2.000000  2.000000  2.000000  2.000000
                       2.000000  2.000000  2.000000  2.000000  2.000000  2.000000
                       2.000000  2.000000  2.000000  2.000000  2.000000  2.000000
                       2.000000  2.000000  2.000000  2.000000  2.000000  2.000000
                       2.000000  2.000000  2.000000  2.000000  2.000000  2.000000
                       2.000000  2.000000  2.000000  2.000000  2.000000  2.000000
                       2.000000  2.000000  2.000000  2.000000  2.000000  2.000000
                       2.000000  2.000000  2.000000  2.000000  2.000000  2.000000
                       2.000000  2.000000  2.000000  2.000000  2.000000  2.000000
                       2.000000  2.000000  2.000000  2.000000  2.000000  2.000000
                       2.000000  2.000000  2.000000  2.000000  2.000000  2.000000
                       2.000000  2.000000  2.000000  2.000000  2.000000  2.000000
                       2.000000  2.000000  2.000000  2.000000  2.000000  2.000000
                       2.000000  2.000000  2.000000  2.000000  2.000000  2.000000
                       2.000000  2.000000  2.000000  2.000000  2.000000  2.000000
                       2.000000  2.000000  2.000000  2.000000  2.000000  2.000000
                       2.000000  2.000000  2.000000  2.000000  2.000000  2.000000
                       2.000000  2.000000  2.000000  2.000000  2.000000  2.000000
                       2.000000  2.000000  2.000000  2.000000  2.000000  2.000000
                       2.000000  2.000000  2.000000  2.000000  2.000000  2.000000
                       2.000000  2.000000  2.000000  2.000000  2.000000  2.000000
                       2.000000  2.000000  2.000000  2.000000  2.000000  2.000000
                       2.000000  2.000000  2.000000  2.000000  2.000000  2.000000
                       2.000000  2.000000  2.000000  2.000000  2.000000  2.000000
                       2.000000  2.000000  2.000000  2.000000  2.000000  2.000000
                       2.000000  2.000000  2.000000  2.000000  2.000000  2.000000
                       2.000000  2.000000  2.000000  2.000000  2.000000  2.000000
                       2.000000  2.000000  2.000000  2.000000  2.000000  2.000000
                       2.000000  2.000000  2.000000  2.000000  2.000000  2.000000
                       2.000000  2.000000  2.000000  2.000000  2.000000  2.000000
                       2.000000  2.000000  2.000000  2.000000  2.000000  2.000000
                       2.000000  2.000000  2.000000  2.000000  2.000000  2.000000
                       2.000000  2.000000  2.000000  2.000000  2.000000  2.000000
                       2.000000  2.000000  2.000000  2.000000  2.000000  2.000000
                       2.000000  2.000000  2.000000  2.000000  2.000000  2.000000
                       2.000000  2.000000  2.000000  2.000000  2.000000  2.000000
                       2.000000  2.000000  2.000000  2.000000  2.000000  2.000000
                       2.000000  2.000000  2.000000  2.000000  2.000000  2.000000
                       2.000000  2.000000  2.000000  2.000000  2.000000  2.000000
                       2.000000  2.000000  2.000000  2.000000  2.000000  2.000000
                       2.000000  2.000000  2.000000  2.000000  2.000000  2.000000
                       2.000000  2.000000  2.000000  2.000000  2.000000  2.000000
                       2.000000  2.000000  2.000000  2.000000  2.000000  2.000000
                       2.000000  2.000000  2.000000  2.000000  2.000000  2.000000
                       2.000000  2.000000  2.000000  2.000000  2.000000  2.000000
                       2.000000  2.000000  2.000000  2.000000  2.000000  2.000000
                       2.000000  2.000000  2.000000  2.000000  2.000000  2.000000
                       2.000000  2.000000  2.000000  2.000000  2.000000  2.000000
                       2.000000  2.000000  2.000000  2.000000  2.000000  2.000000
                       2.000000  2.000000  2.000000  2.000000  2.000000  2.000000
                       2.000000  2.000000  2.000000  2.000000  2.000000  2.000000
                       2.000000  2.000000  2.000000  2.000000  2.000000  2.000000
                       2.000000  2.000000  2.000000  2.000000  2.000000  2.000000
                       2.000000  2.000000  2.000000  2.000000  2.000000  2.000000
                       2.000000  2.000000  2.000000  2.000000  2.000000  2.000000
                       2.000000  2.000000  2.000000  2.000000  2.000000  2.000000
                       2.000000  2.000000  2.000000  2.000000  2.000000  2.000000
                       2.000000  2.000000  2.000000  2.000000  2.000000  2.000000
                       2.000000  2.000000  2.000000  2.000000  2.000000  2.000000
                       2.000000  2.000000  2.000000  2.000000  2.000000  2.000000
                       2.000000  2.000000  2.000000  2.000000  2.000000  2.000000
                       2.000000  2.000000  2.000000  2.000000  2.000000  2.000000
                       2.000000  2.000000  2.000000  2.000000  2.000000  2.000000
                       2.000000  2.000000  2.000000  2.000000  2.000000  2.000000
                       2.000000  2.000000  2.000000  2.000000  2.000000  2.000000
                       2.000000  2.000000  2.000000  2.000000  2.000000  2.000000
                       2.000000  2.000000  2.000000  2.000000  2.000000  2.000000
                       2.000000  2.000000  2.000000  2.000000  2.000000  2.000000
                       2.000000  2.000000  2.000000  2.000000  2.000000  2.000000
                       2.000000  2.000000  2.000000  2.000000  2.000000  2.000000
                       2.000000  2.000000  2.000000  2.000000  2.000000  2.000000
                       2.000000  2.000000  2.000000  2.000000  2.000000  2.000000
                       2.000000  2.000000  2.000000  2.000000  2.000000  2.000000
                       2.000000  2.000000  2.000000  2.000000  2.000000  2.000000
                       2.000000  2.000000  2.000000  2.000000  2.000000  2.000000
                       2.000000  2.000000  2.000000  2.000000  2.000000  2.000000
                       2.000000  2.000000  2.000000  2.000000  2.000000  2.000000
                       2.000000  2.000000  2.000000  2.000000  2.000000  2.000000
                       2.000000  2.000000  2.000000  2.000000  2.000000  2.000000
                       2.000000  2.000000  2.000000  2.000000  2.000000  2.000000
                       2.000000  2.000000  2.000000  2.000000  2.000000  2.000000
                       2.000000  2.000000  2.000000  2.000000  2.000000  2.000000
                       2.000000  2.000000  2.000000  2.000000  2.000000  2.000000
                       0.000000  0.000000  0.000000  0.000000  0.000000  0.000000
                       0.000000  0.000000  0.000000  0.000000  0.000000  0.000000
                       0.000000  0.000000  0.000000  0.000000  0.000000  0.000000
                       0.000000  0.000000  0.000000  0.000000  0.000000  0.000000
                       0.000000  0.000000  0.000000  0.000000  0.000000  0.000000
                       0.000000  0.000000  0.000000  0.000000  0.000000  0.000000
                       0.000000  0.000000  0.000000  0.000000  0.000000  0.000000
                       0.000000  0.000000  0.000000  0.000000  0.000000  0.000000
                       0.000000  0.000000  0.000000  0.000000  0.000000  0.000000
                       0.000000  0.000000  0.000000  0.000000  0.000000  0.000000
                       0.000000  0.000000  0.000000  0.000000  0.000000  0.000000
                       0.000000  0.000000  0.000000  0.000000  0.000000  0.000000
                       0.000000  0.000000  0.000000  0.000000  0.000000  0.000000
                       0.000000  0.000000  0.000000  0.000000  0.000000  0.000000
                       0.000000  0.000000  0.000000  0.000000  0.000000  0.000000
                       0.000000  0.000000  0.000000  0.000000  0.000000  0.000000
                       0.000000  0.000000  0.000000  0.000000  0.000000  0.000000
                       0.000000  0.000000  0.000000  0.000000  0.000000  0.000000
                       0.000000  0.000000  0.000000  0.000000  0.000000  0.000000
                       0.000000  0.000000  0.000000  0.000000  0.000000  0.000000
                       0.000000  0.000000  0.000000  0.000000  0.000000  0.000000
                       0.000000  0.000000  0.000000  0.000000  0.000000  0.000000
                       0.000000  0.000000  0.000000  0.000000  0.000000  0.000000
                       0.000000  0.000000  0.000000  0.000000  0.000000  0.000000
                       0.000000  0.000000  0.000000  0.000000  0.000000  0.000000
                       0.000000  0.000000  0.000000  0.000000  0.000000  0.000000
                       0.000000  0.000000  0.000000  0.000000  0.000000  0.000000
                       0.000000  0.000000  0.000000  0.000000  0.000000  0.000000
                       0.000000  0.000000  0.000000  0.000000  0.000000  0.000000
                       0.000000  0.000000  0.000000  0.000000  0.000000  0.000000
                       0.000000  0.000000  0.000000  0.000000  0.000000  0.000000
                       0.000000  0.000000  0.000000  0.000000  0.000000  0.000000
                       0.000000  0.000000  0.000000  0.000000  0.000000  0.000000
                       0.000000  0.000000  0.000000  0.000000  0.000000  0.000000
                       0.000000  0.000000  0.000000  0.000000  0.000000  0.000000
                       0.000000  0.000000  0.000000  0.000000  0.000000  0.000000
                       0.000000  0.000000  0.000000  0.000000  0.000000  0.000000
                       0.000000  0.000000  0.000000  0.000000  0.000000  0.000000
                       0.000000  0.000000  0.000000  0.000000  0.000000  0.000000
                       0.000000  0.000000  0.000000  0.000000  0.000000  0.000000
                       0.000000  0.000000  0.000000  0.000000  0.000000  0.000000
                       0.000000  0.000000  0.000000  0.000000  0.000000  0.000000
                       0.000000  0.000000  0.000000  0.000000  0.000000  0.000000
                       0.000000  0.000000  0.000000  0.000000  0.000000  0.000000
                       0.000000  0.000000  0.000000  0.000000  0.000000  0.000000
                       0.000000  0.000000  0.000000  0.000000  0.000000  0.000000
                       0.000000  0.000000  0.000000  0.000000  0.000000  0.000000
                       0.000000  0.000000  0.000000  0.000000  0.000000  0.000000
                       0.000000  0.000000  0.000000  0.000000  0.000000  0.000000
                       0.000000  0.000000  0.000000  0.000000  0.000000  0.000000
                       0.000000  0.000000  0.000000  0.000000  0.000000  0.000000
                       0.000000  0.000000  0.000000  0.000000  0.000000  0.000000
                       0.000000  0.000000  0.000000  0.000000  0.000000  0.000000
                       0.000000  0.000000  0.000000  0.000000  0.000000  0.000000
                       0.000000  0.000000  0.000000  0.000000  0.000000  0.000000
                       0.000000  0.000000  0.000000  0.000000  0.000000  0.000000
                       0.000000  0.000000  0.000000  0.000000  0.000000  0.000000
                       0.000000  0.000000  0.000000  0.000000  0.000000  0.000000
                       0.000000  0.000000  0.000000  0.000000  0.000000  0.000000
                       0.000000  0.000000  0.000000  0.000000  0.000000  0.000000
                       0.000000  0.000000  0.000000  0.000000  0.000000  0.000000
                       0.000000  0.000000  0.000000  0.000000  0.000000  0.000000
                       0.000000  0.000000  0.000000  0.000000  0.000000  0.000000
                       0.000000  0.000000  0.000000  0.000000  0.000000  0.000000
                       0.000000  0.000000  0.000000  0.000000  0.000000  0.000000
                       0.000000  0.000000  0.000000  0.000000  0.000000  0.000000
                       0.000000  0.000000  0.000000  0.000000  0.000000  0.000000
                       0.000000  0.000000  0.000000  0.000000  0.000000  0.000000
                       0.000000  0.000000  0.000000  0.000000  0.000000  0.000000
                       0.000000  0.000000  0.000000  0.000000  0.000000  0.000000
                       0.000000  0.000000  0.000000  0.000000  0.000000  0.000000
                       0.000000  0.000000  0.000000  0.000000  0.000000  0.000000
                       0.000000  0.000000  0.000000  0.000000  0.000000  0.000000
                       0.000000  0.000000  0.000000  0.000000  0.000000  0.000000
                       0.000000  0.000000  0.000000  0.000000  0.000000  0.000000
                       0.000000  0.000000  0.000000  0.000000  0.000000  0.000000
                       0.000000  0.000000  0.000000  0.000000  0.000000  0.000000
                       0.000000  0.000000  0.000000  0.000000  0.000000  0.000000
                       0.000000  0.000000  0.000000  0.000000  0.000000  0.000000
                       0.000000  0.000000  0.000000  0.000000  0.000000  0.000000
                       0.000000  0.000000  0.000000  0.000000  0.000000  0.000000
                       0.000000  0.000000  0.000000  0.000000  0.000000  0.000000
                       0.000000  0.000000  0.000000  0.000000  0.000000  0.000000
                       0.000000  0.000000  0.000000  0.000000  0.000000  0.000000
                       0.000000  0.000000  0.000000  0.000000  0.000000  0.000000
                       0.000000  0.000000
           occopt           3
        paral_kgb           1
        pawecutdg      1.00000000E+01 Hartree
         pawmixdg           1
          pawovlp     -1.0000000000E+00
           prtden           0
           prteig           0
            prtwf           0
          spgroup           1
           tolvrs      1.00000000E-03
           tsmear      5.70026776E-03 Hartree
            typat      1  1  1  1  1  1  1  1  1  1  1  1  1  1  1  1  1  1  1  1
                       1  1  1  1  1  1  1  1  1  1  1  1  1  1  1  1  1  1  1  1
                       1  1  1  1  1  1  1  1  1  1  1  1  1  1  1  1  1  1  1  1
                       1  1  1  1  1  1  1  1  1  1  1  1  1  1  1  1  1  1  1  1
                       1  1  1  1  1  1  1  1  1  1  1  1  1  1  1  1  1  1  1  1
                       1  1  1  1  1  1  1  1  1  1  1  1  1  1  1  1  1  1  1  1
                       1  1  1  1  1  1  1  1  1  1  1  1  1  1  1  1  1  1  1  1
                       1  1  1  1  1  1  1  1  1  1  1  1  1  1  1  1  1  1  1  1
                       1  1  1  1  1  1  1  1  1  1  1  1  1  1  1  1  1  1  1  1
                       1  1  1  1  1  1  1  1  1  1  1  1  1  1  1  1  1  1  1  1
                       1  1  1  1  1  1  1  1  1  1  1  1  1  1  1  1  1  1  1  1
                       1  1  1  1  1  1  1  1  1  1  1  1  1  1  1  1  1  1  1  1
                       1  1  1  1  1  1  1  1  1  1  1  1  1  1  1  1
           useylm           1
         wfoptalg           1
              wtk        0.50000    0.50000
           xangst      0.0000000000E+00  0.0000000000E+00  0.0000000000E+00
                       1.6669082071E+00  1.6669082071E+00  1.6669082071E+00
                       0.0000000000E+00  0.0000000000E+00  3.3338164141E+00
                       1.6669082071E+00  1.6669082071E+00  5.0007246212E+00
                       0.0000000000E+00  0.0000000000E+00  6.6676328282E+00
                       1.6669082071E+00  1.6669082071E+00  8.3345410353E+00
                       0.0000000000E+00  0.0000000000E+00  1.0001449242E+01
                       1.6669082071E+00  1.6669082071E+00  1.1668357449E+01
                       0.0000000000E+00  3.3338164141E+00  0.0000000000E+00
                       1.6669082071E+00  5.0007246212E+00  1.6669082071E+00
                       0.0000000000E+00  3.3338164141E+00  3.3338164141E+00
                       1.6669082071E+00  5.0007246212E+00  5.0007246212E+00
                       0.0000000000E+00  3.3338164141E+00  6.6676328282E+00
                       1.6669082071E+00  5.0007246212E+00  8.3345410353E+00
                       0.0000000000E+00  3.3338164141E+00  1.0001449242E+01
                       1.6669082071E+00  5.0007246212E+00  1.1668357449E+01
                       0.0000000000E+00  6.6676328282E+00  0.0000000000E+00
                       1.6669082071E+00  8.3345410353E+00  1.6669082071E+00
                       0.0000000000E+00  6.6676328282E+00  3.3338164141E+00
                       1.6669082071E+00  8.3345410353E+00  5.0007246212E+00
                       0.0000000000E+00  6.6676328282E+00  6.6676328282E+00
                       1.6669082071E+00  8.3345410353E+00  8.3345410353E+00
                       0.0000000000E+00  6.6676328282E+00  1.0001449242E+01
                       1.6669082071E+00  8.3345410353E+00  1.1668357449E+01
                       0.0000000000E+00  1.0001449242E+01  0.0000000000E+00
                       1.6669082071E+00  1.1668357449E+01  1.6669082071E+00
                       0.0000000000E+00  1.0001449242E+01  3.3338164141E+00
                       1.6669082071E+00  1.1668357449E+01  5.0007246212E+00
                       0.0000000000E+00  1.0001449242E+01  6.6676328282E+00
                       1.6669082071E+00  1.1668357449E+01  8.3345410353E+00
                       0.0000000000E+00  1.0001449242E+01  1.0001449242E+01
                       1.6669082071E+00  1.1668357449E+01  1.1668357449E+01
                       3.3338164141E+00  0.0000000000E+00  0.0000000000E+00
                       5.0007246212E+00  1.6669082071E+00  1.6669082071E+00
                       3.3338164141E+00  0.0000000000E+00  3.3338164141E+00
                       5.0007246212E+00  1.6669082071E+00  5.0007246212E+00
                       3.3338164141E+00  0.0000000000E+00  6.6676328282E+00
                       5.0007246212E+00  1.6669082071E+00  8.3345410353E+00
                       3.3338164141E+00  0.0000000000E+00  1.0001449242E+01
                       5.0007246212E+00  1.6669082071E+00  1.1668357449E+01
                       3.3338164141E+00  3.3338164141E+00  0.0000000000E+00
                       5.0007246212E+00  5.0007246212E+00  1.6669082071E+00
                       3.3338164141E+00  3.3338164141E+00  3.3338164141E+00
                       5.0007246212E+00  5.0007246212E+00  5.0007246212E+00
                       3.3338164141E+00  3.3338164141E+00  6.6676328282E+00
                       5.0007246212E+00  5.0007246212E+00  8.3345410353E+00
                       3.3338164141E+00  3.3338164141E+00  1.0001449242E+01
                       5.0007246212E+00  5.0007246212E+00  1.1668357449E+01
                       3.3338164141E+00  6.6676328282E+00  0.0000000000E+00
                       5.0007246212E+00  8.3345410353E+00  1.6669082071E+00
                       3.3338164141E+00  6.6676328282E+00  3.3338164141E+00
                       5.0007246212E+00  8.3345410353E+00  5.0007246212E+00
                       3.3338164141E+00  6.6676328282E+00  6.6676328282E+00
                       5.0007246212E+00  8.3345410353E+00  8.3345410353E+00
                       3.3338164141E+00  6.6676328282E+00  1.0001449242E+01
                       5.0007246212E+00  8.3345410353E+00  1.1668357449E+01
                       3.3338164141E+00  1.0001449242E+01  0.0000000000E+00
                       5.0007246212E+00  1.1668357449E+01  1.6669082071E+00
                       3.3338164141E+00  1.0001449242E+01  3.3338164141E+00
                       5.0007246212E+00  1.1668357449E+01  5.0007246212E+00
                       3.3338164141E+00  1.0001449242E+01  6.6676328282E+00
                       5.0007246212E+00  1.1668357449E+01  8.3345410353E+00
                       3.3338164141E+00  1.0001449242E+01  1.0001449242E+01
                       5.0007246212E+00  1.1668357449E+01  1.1668357449E+01
                       6.6676328282E+00  0.0000000000E+00  0.0000000000E+00
                       8.3345410353E+00  1.6669082071E+00  1.6669082071E+00
                       6.6676328282E+00  0.0000000000E+00  3.3338164141E+00
                       8.3345410353E+00  1.6669082071E+00  5.0007246212E+00
                       6.6676328282E+00  0.0000000000E+00  6.6676328282E+00
                       8.3345410353E+00  1.6669082071E+00  8.3345410353E+00
                       6.6676328282E+00  0.0000000000E+00  1.0001449242E+01
                       8.3345410353E+00  1.6669082071E+00  1.1668357449E+01
                       6.6676328282E+00  3.3338164141E+00  0.0000000000E+00
                       8.3345410353E+00  5.0007246212E+00  1.6669082071E+00
                       6.6676328282E+00  3.3338164141E+00  3.3338164141E+00
                       8.3345410353E+00  5.0007246212E+00  5.0007246212E+00
                       6.6676328282E+00  3.3338164141E+00  6.6676328282E+00
                       8.3345410353E+00  5.0007246212E+00  8.3345410353E+00
                       6.6676328282E+00  3.3338164141E+00  1.0001449242E+01
                       8.3345410353E+00  5.0007246212E+00  1.1668357449E+01
                       6.6676328282E+00  6.6676328282E+00  0.0000000000E+00
                       8.3345410353E+00  8.3345410353E+00  1.6669082071E+00
                       6.6676328282E+00  6.6676328282E+00  3.3338164141E+00
                       8.3345410353E+00  8.3345410353E+00  5.0007246212E+00
                       6.6676328282E+00  6.6676328282E+00  6.6676328282E+00
                       8.3345410353E+00  8.3345410353E+00  8.3345410353E+00
                       6.6676328282E+00  6.6676328282E+00  1.0001449242E+01
                       8.3345410353E+00  8.3345410353E+00  1.1668357449E+01
                       6.6676328282E+00  1.0001449242E+01  0.0000000000E+00
                       8.3345410353E+00  1.1668357449E+01  1.6669082071E+00
                       6.6676328282E+00  1.0001449242E+01  3.3338164141E+00
                       8.3345410353E+00  1.1668357449E+01  5.0007246212E+00
                       6.6676328282E+00  1.0001449242E+01  6.6676328282E+00
                       8.3345410353E+00  1.1668357449E+01  8.3345410353E+00
                       6.6676328282E+00  1.0001449242E+01  1.0001449242E+01
                       8.3345410353E+00  1.1668357449E+01  1.1668357449E+01
                       1.0001449242E+01  0.0000000000E+00  0.0000000000E+00
                       1.1668357449E+01  1.6669082071E+00  1.6669082071E+00
                       1.0001449242E+01  0.0000000000E+00  3.3338164141E+00
                       1.1668357449E+01  1.6669082071E+00  5.0007246212E+00
                       1.0001449242E+01  0.0000000000E+00  6.6676328282E+00
                       1.1668357449E+01  1.6669082071E+00  8.3345410353E+00
                       1.0001449242E+01  0.0000000000E+00  1.0001449242E+01
                       1.1668357449E+01  1.6669082071E+00  1.1668357449E+01
                       1.0001449242E+01  3.3338164141E+00  0.0000000000E+00
                       1.1668357449E+01  5.0007246212E+00  1.6669082071E+00
                       1.0001449242E+01  3.3338164141E+00  3.3338164141E+00
                       1.1668357449E+01  5.0007246212E+00  5.0007246212E+00
                       1.0001449242E+01  3.3338164141E+00  6.6676328282E+00
                       1.1668357449E+01  5.0007246212E+00  8.3345410353E+00
                       1.0001449242E+01  3.3338164141E+00  1.0001449242E+01
                       1.1668357449E+01  5.0007246212E+00  1.1668357449E+01
                       1.0001449242E+01  6.6676328282E+00  0.0000000000E+00
                       1.1668357449E+01  8.3345410353E+00  1.6669082071E+00
                       1.0001449242E+01  6.6676328282E+00  3.3338164141E+00
                       1.1668357449E+01  8.3345410353E+00  5.0007246212E+00
                       1.0001449242E+01  6.6676328282E+00  6.6676328282E+00
                       1.1668357449E+01  8.3345410353E+00  8.3345410353E+00
                       1.0001449242E+01  6.6676328282E+00  1.0001449242E+01
                       1.1668357449E+01  8.3345410353E+00  1.1668357449E+01
                       1.0001449242E+01  1.0001449242E+01  0.0000000000E+00
                       1.1668357449E+01  1.1668357449E+01  1.6669082071E+00
                       1.0001449242E+01  1.0001449242E+01  3.3338164141E+00
                       1.1668357449E+01  1.1668357449E+01  5.0007246212E+00
                       1.0001449242E+01  1.0001449242E+01  6.6676328282E+00
                       1.1668357449E+01  1.1668357449E+01  8.3345410353E+00
                       1.0001449242E+01  1.0001449242E+01  1.0001449242E+01
                       1.1668357449E+01  1.1668357449E+01  1.1668357449E+01
                       1.3352957109E+01  5.8402284902E+00  2.7476870376E+00
                       1.5729968212E+01  2.3584306331E+00  3.2708295093E+00
                       1.5745970531E+01  6.4884957596E-01  6.2294182184E+00
                       1.5292304793E+01  4.9202818536E+00  5.8770604940E+00
                       1.3185199467E+01  3.9738647147E+00  8.3615671737E+00
                       1.5513003440E+01  4.6389877599E+00  1.2679126135E+01
                       1.4469118844E+01  1.4589669646E+00  1.1305993831E+01
                       1.8103668569E+01  5.4031384878E+00  9.2862344943E-01
                       1.5748637584E+01  6.0514991040E+00  1.3688205688E+00
                       1.6066016907E+01  6.3130570046E+00  4.2316887409E+00
                       1.3472841147E+01  3.6247474599E+00  3.3371057796E+00
                       1.6102555535E+01  7.2360707523E+00  6.7877657914E+00
                       1.5828382473E+01  5.9851694926E+00  9.0595349781E+00
                       1.7918885393E+01  8.2838225749E+00  9.7449676329E+00
                       1.7044585371E+01  7.7690813206E+00  1.2411887412E+01
                       1.8089472379E+01  5.2425552188E+00  3.8159751694E+00
                       1.4726622824E+01  8.6282724868E+00  3.8683827634E+00
                       1.7546124712E+01  8.8312352301E+00  4.5454142008E+00
                       1.4550997375E+01  9.4311888320E+00  6.7308375424E+00
                       1.5967202588E+01  1.1220781483E+01  8.6794799069E+00
                       1.5018798495E+01  8.7006829793E+00  8.8760417227E+00
                       1.5858253468E+01  9.9023237676E+00  1.1496288072E+01
                       1.4631275675E+01  8.5781318880E+00  3.2520267848E-01
                       1.6388997041E+01  1.1225448826E+01  4.6468955724E-01
                       1.3579656625E+01  1.0830991668E+01  1.1443880478E+00
                       2.5670475290E+01  1.3184132646E-01  2.2244112133E+00
                       1.6334855862E+01  1.1295725676E+01  5.7350399147E+00
                       1.5727434512E+01  3.2380247558E+00  8.3879709997E+00
                       1.3977447600E+01  1.1726854815E+01  1.2399885672E+01
                       1.6943690751E+01  6.1271100603E-01  9.1962214511E+00
                       1.4825437143E+01  6.0390973070E-01  1.1915948882E+00
                       1.7809722909E+01  1.9585060161E-01  2.3677653191E+00
                       1.8906001763E+01  2.6886118108E+00  2.8007613949E+00
                       2.4626057284E+01  2.2126761795E+00  3.9118557294E+00
                       1.7878132822E+01  2.5532588644E-01  4.9104804334E+00
                       1.7504385331E+01  2.9182450854E+00  4.9262693879E+00
                       1.6662369987E+01  2.9906555779E+00  1.0705506818E+01
                       1.7679063976E+01  5.5267817374E+00  1.0965011088E+01
                       1.6772132558E+01  2.5217876374E+00  7.3019469646E-01
                       1.8977212082E+01  3.6143459526E+00  9.8521831688E+00
                       1.9725080450E+01  2.0607875037E+00  1.8278204126E-01
                       2.0169811560E+01  8.6405409312E+00  3.2440256254E+00
                       2.0301964042E+01  3.8558476137E+00  5.0224966649E+00
                       1.9371415870E+01  6.8905540191E+00  5.7690981832E+00
                       1.8002098785E+01  5.2198719319E+00  7.0565780765E+00
                       2.0453452660E+01  9.9475303182E+00  1.0285579303E+01
                       1.9936844469E+01  7.3534210901E+00  1.1551362719E+01
                       1.9860033339E+01  7.4080956793E+00  1.1650577095E+00
                       1.7289100802E+01  7.9893799092E+00  1.8235531276E+00
                       2.2181703089E+01  1.3039445013E+01  4.0904149366E+00
                       1.7818524184E+01  9.6790914205E+00  7.3980942300E+00
                       2.0506260312E+01  9.4266548417E+00  6.5968047872E+00
                       1.9759885494E+01  7.5695857464E+00  8.6081362357E+00
                       2.1283172889E+01  1.0295047341E+01  1.3049713168E+01
                       1.8452629401E+01  9.8767200576E+00  1.2447092513E+01
                       1.9033060174E+01  1.2785674908E+01  1.3254276143E+01
                       1.7482888883E+01  1.1119966875E+01  3.3013672677E+00
                       2.0199815908E+01  1.3320419061E+01  2.4095047006E+00
                       1.9983117841E+01  1.1299459550E+01  4.7769277478E+00
                       1.8280364440E+01  1.2061703335E+01  7.0567114292E+00
                       1.8383125997E+01  1.1453481869E+01  9.7592363671E+00
                       2.0009921725E+01  9.2675651224E-01  8.5924006222E+00
                       1.6170031979E+01  1.3025576337E+01  1.1584834236E+01
                       1.8668033947E+01  9.4262547837E-01  1.1333064420E+01
                       2.3230388381E+01  7.8446922768E-01  2.2466811069E+00
                       2.2640436228E+01  5.5975959987E+00  2.4632458212E+00
                       2.4894229477E+01  1.3090652433E+01  5.1274585409E+00
                       1.7935687828E+01  2.3963027876E+00  7.6926702484E+00
                       2.2782990218E+01  1.4612339598E+00  6.3583969078E+00
                       2.2001410298E+01  6.5523316763E+00  7.3344850128E+00
                       2.0926321181E+01  3.8801177972E+00  7.6573317944E+00
                       2.0483056950E+01  4.8169068743E+00  1.2354412417E+01
                       2.1618688173E+01  2.2632168363E+00  3.0250605633E+00
                       2.4231866831E+01  7.6046574950E+00  3.1758824179E+00
                       2.0318366419E+01  5.0160157258E+00  2.5131197147E+00
                       2.3702590138E+01  7.0784479122E+00  5.6485713852E+00
                       2.2820062256E+01  4.3023789842E+00  4.8576194403E+00
                       2.2274116480E+01  7.8881652429E+00  1.0307049080E+01
                       2.0994731093E+01  5.1769323765E+00  9.9496639607E+00
                       2.2323056905E+01  9.0832717510E+00  2.4667129902E+00
                       2.2087022703E+01  9.7739051594E+00  4.9324436159E+00
                       2.2780456517E+01  1.1655244438E+01  6.5225140223E+00
                       2.1712568444E+01  6.6870845357E+00  4.6545100091E+00
                       2.2853933831E+01  9.0255300507E+00  7.8442922189E+00
                       2.3151176903E+01  1.0476273601E+01  1.1331997599E+01
                       2.4875960163E+01  7.7329427506E+00  1.0921138064E+01
                       1.8985173235E+01  1.0308782665E+01  1.5132414958E+00
                       2.4147721305E+01  9.8763199996E+00  4.0308062991E-01
                       2.1768843265E+01  1.1377604207E+01  1.8019499973E+00
                       1.3986382228E+01  1.1077160672E+00  4.6288262875E+00
                       2.0198215676E+01  4.4868723845E-01  5.8885154872E+00
                       2.5270550673E+01  1.4571000274E-01  8.0872607591E+00
                       2.0694954321E+01  1.1172641174E+01  8.2815555798E+00
                       2.2965416652E+01  6.5725079332E-01  8.9760562151E+00
                       2.1149820233E+01  1.2953299197E+01  1.0546150394E+01
                       2.1933533796E+01  1.7251388671E-01  1.2935829999E+01
                       2.2336792229E+01  3.1557461667E+00  2.7506207961E-01
                       2.5440575311E+01  4.5578293331E+00  5.9756881188E+00
                       2.3659117172E+01  3.6515513438E+00  7.7469447796E+00
                       1.4190411792E+01  2.7798250279E+00  6.4866154871E+00
                       2.5222010306E+01  2.2342793099E+00  9.9249937193E+00
                       1.3156395293E+01  4.2540653167E+00  1.0996348962E+01
                       2.1099946339E+01  2.0847909818E+00  1.1307327357E+01
                       1.3664068857E+01  3.3417731226E+00  6.0310961476E-01
                       2.4370020184E+01  6.3531161426E+00  1.0185031400E+00
                       1.3043045535E+01  7.0448430428E+00  5.1411405234E+00
                       2.2765254315E+01  3.6587523873E+00  1.0180630762E+01
                       1.3628196992E+01  6.6077530403E+00  7.5935892245E+00
                       2.4238934522E+01  5.5842020578E+00  8.9384507660E+00
                       1.4792632389E+01  6.9973694970E+00  1.1036088054E+01
                       2.3704323722E+01  5.3319948455E+00  1.1954887857E+01
                       1.3248541979E+01  6.2612094917E+00  1.2968768105E+01
                       1.3521514867E+01  1.0922471590E+01  4.2686274268E+00
                       1.5114812407E+01  1.2828214405E+01  3.2493597316E+00
                       2.4865025245E+01  9.8053763863E+00  5.7484685272E+00
                       1.3475508200E+01  1.1039421870E+01  8.9051126018E+00
                       2.5176670403E+01  8.7256199261E+00  8.8475042542E+00
                       1.2963300646E+01  9.9129919802E+00  1.1433212265E+01
                       2.2195571766E+01  7.3695567615E+00  6.3564766296E-03
[...]
                       1.2500000000E-01  5.0000000000E-01  0.0000000000E+00
                       1.8750000000E-01  6.2500000000E-01  1.2500000000E-01
                       1.2500000000E-01  5.0000000000E-01  2.5000000000E-01
                       1.8750000000E-01  6.2500000000E-01  3.7500000000E-01
                       1.2500000000E-01  5.0000000000E-01  5.0000000000E-01
                       1.8750000000E-01  6.2500000000E-01  6.2500000000E-01
                       1.2500000000E-01  5.0000000000E-01  7.5000000000E-01
                       1.8750000000E-01  6.2500000000E-01  8.7500000000E-01
                       1.2500000000E-01  7.5000000000E-01  0.0000000000E+00
                       1.8750000000E-01  8.7500000000E-01  1.2500000000E-01
                       1.2500000000E-01  7.5000000000E-01  2.5000000000E-01
                       1.8750000000E-01  8.7500000000E-01  3.7500000000E-01
                       1.2500000000E-01  7.5000000000E-01  5.0000000000E-01
                       1.8750000000E-01  8.7500000000E-01  6.2500000000E-01
                       1.2500000000E-01  7.5000000000E-01  7.5000000000E-01
                       1.8750000000E-01  8.7500000000E-01  8.7500000000E-01
                       2.5000000000E-01  0.0000000000E+00  0.0000000000E+00
                       3.1250000000E-01  1.2500000000E-01  1.2500000000E-01
                       2.5000000000E-01  0.0000000000E+00  2.5000000000E-01
                       3.1250000000E-01  1.2500000000E-01  3.7500000000E-01
                       2.5000000000E-01  0.0000000000E+00  5.0000000000E-01
                       3.1250000000E-01  1.2500000000E-01  6.2500000000E-01
                       2.5000000000E-01  0.0000000000E+00  7.5000000000E-01
                       3.1250000000E-01  1.2500000000E-01  8.7500000000E-01
                       2.5000000000E-01  2.5000000000E-01  0.0000000000E+00
                       3.1250000000E-01  3.7500000000E-01  1.2500000000E-01
                       2.5000000000E-01  2.5000000000E-01  2.5000000000E-01
                       3.1250000000E-01  3.7500000000E-01  3.7500000000E-01
                       2.5000000000E-01  2.5000000000E-01  5.0000000000E-01
                       3.1250000000E-01  3.7500000000E-01  6.2500000000E-01
                       2.5000000000E-01  2.5000000000E-01  7.5000000000E-01
                       3.1250000000E-01  3.7500000000E-01  8.7500000000E-01
                       2.5000000000E-01  5.0000000000E-01  0.0000000000E+00
                       3.1250000000E-01  6.2500000000E-01  1.2500000000E-01
                       2.5000000000E-01  5.0000000000E-01  2.5000000000E-01
                       3.1250000000E-01  6.2500000000E-01  3.7500000000E-01
                       2.5000000000E-01  5.0000000000E-01  5.0000000000E-01
                       3.1250000000E-01  6.2500000000E-01  6.2500000000E-01
                       2.5000000000E-01  5.0000000000E-01  7.5000000000E-01
                       3.1250000000E-01  6.2500000000E-01  8.7500000000E-01
                       2.5000000000E-01  7.5000000000E-01  0.0000000000E+00
                       3.1250000000E-01  8.7500000000E-01  1.2500000000E-01
                       2.5000000000E-01  7.5000000000E-01  2.5000000000E-01
                       3.1250000000E-01  8.7500000000E-01  3.7500000000E-01
                       2.5000000000E-01  7.5000000000E-01  5.0000000000E-01
                       3.1250000000E-01  8.7500000000E-01  6.2500000000E-01
                       2.5000000000E-01  7.5000000000E-01  7.5000000000E-01
                       3.1250000000E-01  8.7500000000E-01  8.7500000000E-01
                       3.7500000000E-01  0.0000000000E+00  0.0000000000E+00
                       4.3750000000E-01  1.2500000000E-01  1.2500000000E-01
                       3.7500000000E-01  0.0000000000E+00  2.5000000000E-01
                       4.3750000000E-01  1.2500000000E-01  3.7500000000E-01
                       3.7500000000E-01  0.0000000000E+00  5.0000000000E-01
                       4.3750000000E-01  1.2500000000E-01  6.2500000000E-01
                       3.7500000000E-01  0.0000000000E+00  7.5000000000E-01
                       4.3750000000E-01  1.2500000000E-01  8.7500000000E-01
                       3.7500000000E-01  2.5000000000E-01  0.0000000000E+00
                       4.3750000000E-01  3.7500000000E-01  1.2500000000E-01
                       3.7500000000E-01  2.5000000000E-01  2.5000000000E-01
                       4.3750000000E-01  3.7500000000E-01  3.7500000000E-01
                       3.7500000000E-01  2.5000000000E-01  5.0000000000E-01
                       4.3750000000E-01  3.7500000000E-01  6.2500000000E-01
                       3.7500000000E-01  2.5000000000E-01  7.5000000000E-01
                       4.3750000000E-01  3.7500000000E-01  8.7500000000E-01
                       3.7500000000E-01  5.0000000000E-01  0.0000000000E+00
                       4.3750000000E-01  6.2500000000E-01  1.2500000000E-01
                       3.7500000000E-01  5.0000000000E-01  2.5000000000E-01
                       4.3750000000E-01  6.2500000000E-01  3.7500000000E-01
                       3.7500000000E-01  5.0000000000E-01  5.0000000000E-01
                       4.3750000000E-01  6.2500000000E-01  6.2500000000E-01
                       3.7500000000E-01  5.0000000000E-01  7.5000000000E-01
                       4.3750000000E-01  6.2500000000E-01  8.7500000000E-01
                       3.7500000000E-01  7.5000000000E-01  0.0000000000E+00
                       4.3750000000E-01  8.7500000000E-01  1.2500000000E-01
                       3.7500000000E-01  7.5000000000E-01  2.5000000000E-01
                       4.3750000000E-01  8.7500000000E-01  3.7500000000E-01
                       3.7500000000E-01  7.5000000000E-01  5.0000000000E-01
                       4.3750000000E-01  8.7500000000E-01  6.2500000000E-01
                       3.7500000000E-01  7.5000000000E-01  7.5000000000E-01
                       4.3750000000E-01  8.7500000000E-01  8.7500000000E-01
                       5.0066333333E-01  4.3795366667E-01  2.0604666667E-01
                       5.8978833333E-01  1.7685666667E-01  2.4527666667E-01
                       5.9038833333E-01  4.8656666667E-02  4.6713866667E-01
                       5.7337833333E-01  3.6896766667E-01  4.4071566667E-01
                       4.9437333333E-01  2.9799666667E-01  6.2702666667E-01
                       5.8165333333E-01  3.4787366667E-01  9.5079666667E-01
                       5.4251333333E-01  1.0940666667E-01  8.4782666667E-01
                       6.7878919833E-01  4.0517666667E-01  6.9636666667E-02
                       5.9048833333E-01  4.5379666667E-01  1.0264666667E-01
                       6.0238833333E-01  4.7341066667E-01  3.1733066667E-01
                       5.0515833333E-01  2.7181666667E-01  2.5024666667E-01
                       6.0375833333E-01  5.4262666667E-01  5.0900866667E-01
                       5.9347833333E-01  4.4882266667E-01  6.7936666667E-01
                       6.7186083333E-01  6.2119666667E-01  7.3076666667E-01
                       6.3907933333E-01  5.8259666667E-01  9.3075666667E-01
                       6.7825691833E-01  3.9313466667E-01  2.8615666667E-01
                       5.5216833333E-01  6.4702666667E-01  2.9008666667E-01
                       6.5788433333E-01  6.6224666667E-01  3.4085666667E-01
                       5.4558333333E-01  7.0723666667E-01  5.0473966667E-01
                       5.9868333333E-01  8.4143666667E-01  6.5086666667E-01
                       5.6312333333E-01  6.5245666667E-01  6.6560666667E-01
                       5.9459833333E-01  7.4256666667E-01  8.6209666667E-01
                       5.4859333333E-01  6.4326666667E-01  2.4386666667E-02
                       6.1449833333E-01  8.4178666667E-01  3.4846666667E-02
                       5.0916333333E-01  8.1220666667E-01  8.5816666667E-02
                       9.6250333333E-01  9.8866666667E-03  1.6680666667E-01
                       6.1246833333E-01  8.4705666667E-01  4.3006566667E-01
                       5.8969333333E-01  2.4281666667E-01  6.2900666667E-01
                       5.2407833333E-01  8.7938666667E-01  9.2985666667E-01
                       6.3529633333E-01  4.5946666667E-02  6.8961666667E-01
                       5.5587333333E-01  4.5286666667E-02  8.9356666667E-02
                       6.6776783333E-01  1.4686666667E-02  1.7755666667E-01
                       7.0887233333E-01  2.0161666667E-01  2.1002666667E-01
                       9.2334333333E-01  1.6592666667E-01  2.9334666667E-01
                       6.7033283333E-01  1.9146666667E-02  3.6823266667E-01
                       6.5631933333E-01  2.1883666667E-01  3.6941666667E-01
                       6.2474833333E-01  2.2426666667E-01  8.0279666667E-01
                       6.6286883333E-01  4.1444856667E-01  8.2225666667E-01
                       6.2886383333E-01  1.8910666667E-01  5.4756666667E-02
                       7.1154233333E-01  2.7103666667E-01  7.3880666667E-01
                       7.3958333333E-01  1.5453666667E-01  1.3706666667E-02
                       7.5625833333E-01  6.4794666667E-01  2.4326666667E-01
                       7.6121333333E-01  2.8914666667E-01  3.7663266667E-01
                       7.2632283333E-01  5.1671666667E-01  4.3261966667E-01
                       6.7498088333E-01  3.9143366667E-01  5.2916666667E-01
                       7.6689333333E-01  7.4595666667E-01  7.7130666667E-01
                       7.4752333333E-01  5.5142666667E-01  8.6622666667E-01
                       7.4464333333E-01  5.5552666667E-01  8.7366666667E-02
                       6.4824733333E-01  5.9911666667E-01  1.3674666667E-01
                       8.3169333333E-01  9.7781666667E-01  3.0673666667E-01
                       6.6809783333E-01  7.2582666667E-01  5.5477666667E-01
                       7.6887333333E-01  7.0689666667E-01  4.9468866667E-01
                       7.4088833333E-01  5.6763666667E-01  6.4551666667E-01
                       7.9800333333E-01  7.7201666667E-01  9.7858666667E-01
                       6.9187333333E-01  7.4064666667E-01  9.3339666667E-01
                       7.1363633333E-01  9.5878666667E-01  9.9392666667E-01
                       6.5551333333E-01  8.3387666667E-01  2.4756666667E-01
                       7.5738333333E-01  9.9888666667E-01  1.8068666667E-01
                       7.4925833333E-01  8.4733666667E-01  3.5821766667E-01
                       6.8541433333E-01  9.0449666667E-01  5.2917666667E-01
                       6.8926733333E-01  8.5888666667E-01  7.3183666667E-01
                       7.5026333333E-01  6.9496666667E-02  6.4433666667E-01
                       6.0628833333E-01  9.7677666667E-01  8.6873666667E-01
                       6.9994983333E-01  7.0686666667E-02  8.4985666667E-01
                       8.7101333333E-01  5.8826666667E-02  1.6847666667E-01
                       8.4889333333E-01  4.1975886667E-01  1.8471666667E-01
                       9.3339833333E-01  9.8165666667E-01  3.8450366667E-01
                       6.7249083333E-01  1.7969666667E-01  5.7686666667E-01
                       8.5423833333E-01  1.0957666667E-01  4.7681066667E-01
                       8.2493333333E-01  4.9135366667E-01  5.5000666667E-01
                       7.8462333333E-01  2.9096666667E-01  5.7421666667E-01
                       7.6800333333E-01  3.6121566667E-01  9.2644666667E-01
                       8.1058333333E-01  1.6971666667E-01  2.2684666667E-01
                       9.0856333333E-01  5.7026666667E-01  2.3815666667E-01
                       7.6182833333E-01  3.7614666667E-01  1.8845666667E-01
                       8.8871833333E-01  5.3080666667E-01  4.2358146667E-01
                       8.5562833333E-01  3.2263166667E-01  3.6426866667E-01
                       8.3515833333E-01  5.9152666667E-01  7.7291666667E-01
                       7.8718833333E-01  3.8821366667E-01  7.4611666667E-01
                       8.3699333333E-01  6.8114666667E-01  1.8497666667E-01
                       8.2814333333E-01  7.3293666667E-01  3.6987966667E-01
                       8.5414333333E-01  8.7401666667E-01  4.8911766667E-01
                       8.1410333333E-01  5.0145866667E-01  3.4903766667E-01
                       8.5689833333E-01  6.7681666667E-01  5.8823666667E-01
                       8.6804333333E-01  7.8560666667E-01  8.4977666667E-01
                       9.3271333333E-01  5.7988666667E-01  8.1896666667E-01
                       7.1184083333E-01  7.7304666667E-01  1.1347666667E-01
                       9.0540833333E-01  7.4061666667E-01  3.0226666667E-02
                       8.1621333333E-01  8.5319666667E-01  1.3512666667E-01
                       5.2441333333E-01  8.3066666667E-02  3.4711166667E-01
                       7.5732333333E-01  3.3646666667E-02  4.4157466667E-01
                       9.4750833333E-01  1.0926666667E-02  6.0645666667E-01
                       7.7594833333E-01  8.3782666667E-01  6.2102666667E-01
                       8.6107833333E-01  4.9286666667E-02  6.7310666667E-01
                       7.9300333333E-01  9.7135666667E-01  7.9084666667E-01
                       8.2238833333E-01  1.2936666667E-02  9.7004666667E-01
                       8.3750833333E-01  2.3664666667E-01  2.0626666667E-02
                       9.5388333333E-01  3.4178766667E-01  4.4811166667E-01
                       8.8708833333E-01  2.7382666667E-01  5.8093666667E-01
                       5.3206333333E-01  2.0845666667E-01  4.8642566667E-01
                       9.4568833333E-01  1.6754666667E-01  7.4426666667E-01
                       4.9329333333E-01  3.1900866667E-01  8.2460666667E-01
                       7.9113333333E-01  1.5633666667E-01  8.4792666667E-01
                       5.1232833333E-01  2.5059666667E-01  4.5226666667E-02
                       9.1374333333E-01  4.7641466667E-01  7.6376666667E-02
                       4.8904333333E-01  5.2828666667E-01  3.8552966667E-01
                       8.5357333333E-01  2.7436666667E-01  7.6343666667E-01
                       5.1098333333E-01  4.9550966667E-01  5.6943666667E-01
                       9.0882833333E-01  4.1875446667E-01  6.7028666667E-01
                       5.5464333333E-01  5.2472666667E-01  8.2758666667E-01
                       8.8878333333E-01  3.9984166667E-01  8.9648666667E-01
                       4.9674833333E-01  4.6952266667E-01  9.7251666667E-01
                       5.0698333333E-01  8.1906666667E-01  3.2010066667E-01
                       5.6672333333E-01  9.6197666667E-01  2.4366666667E-01
                       9.3230333333E-01  7.3529666667E-01  4.3107266667E-01
                       5.0525833333E-01  8.2783666667E-01  6.6778666667E-01
                       9.4398833333E-01  6.5432666667E-01  6.6346666667E-01
                       4.8605333333E-01  7.4336666667E-01  8.5736666667E-01
                       8.3221333333E-01  5.5263666667E-01  4.7666666667E-04
                       4.7925833333E-01  6.3845666667E-01  1.6634666667E-01
                       9.1936333333E-01  8.4625666667E-01  2.2666666667E-01
                       9.1682333333E-01  2.8260666667E-01  1.3265666667E-01
                       5.1926833333E-01  9.2371666667E-01  5.0915766667E-01
                       5.3698833333E-01  7.9296666667E-02  6.6035666667E-01
                       8.9665333333E-01  8.4174666667E-01  6.7481666667E-01
                       9.3254833333E-01  9.7751666667E-01  8.1711666667E-01
                       9.1770833333E-01  9.3970666667E-01  9.9482666667E-01
                       9.2680333333E-01  1.4577666667E-01  9.5922666667E-01
            znucl       22.00000
 
================================================================================


- Timing analysis has been suppressed with timopt=0



================================================================================

 Suggested references for the acknowledgment of ABINIT usage.

 The users of ABINIT have little formal obligations with respect to the ABINIT group
 (those specified in the GNU General Public License, http://www.gnu.org/copyleft/gpl.txt).
 However, it is common practice in the scientific literature,
 to acknowledge the efforts of people that have made the research possible.
 In this spirit, please find below suggested citations of work written by ABINIT developers,
 corresponding to implementations inside of ABINIT that you have used in the present run.
 Note also that it will be of great value to readers of publications presenting these results,
 to read papers enabling them to understand the theoretical formalism and details
 of the ABINIT implementation.
 For information on why they are suggested, see also http://www.abinit.org/about/?text=acknowledgments.

 [1] Large scale ab initio calculations based on three levels of parallelization
 F. Bottin, S. Leroux, A. Knyazev, G. Zerah, Comput. Mat. Science 42, 329, (2008).
 Comment : in case paral_kgb is non-zero. Strong suggestion to cite this paper in your publications.
 This paper is also available at http://www.arxiv.org/abs/0707.3405

 [2] Implementation of the Projector Augmented-Wave Method in the ABINIT code.
 M. Torrent, F. Jollet, F. Bottin, G. Zerah, and X. Gonze Comput. Mat. Science 42, 337, (2008).
 Comment : PAW calculations. Strong suggestion to cite this paper.

 [3] ABINIT : First-principles approach of materials and nanosystem properties.
 X. Gonze, B. Amadon, P.-M. Anglade, J.-M. Beuken, F. Bottin, P. Boulanger, F. Bruneval,
 D. Caliste, R. Caracas, M. Cote, T. Deutsch, L. Genovese, Ph. Ghosez, M. Giantomassi
 S. Goedecker, D.R. Hamann, P. Hermet, F. Jollet, G. Jomard, S. Leroux, M. Mancini, S. Mazevet,
 M.J.T. Oliveira, G. Onida, Y. Pouillon, T. Rangel, G.-M. Rignanese, D. Sangalli, R. Shaltaf,
 M. Torrent, M.J. Verstraete, G. Zerah, J.W. Zwanziger
 Computer Phys. Comm. 180, 2582-2615 (2009).
 Comment : the third generic paper describing the ABINIT project.
 Note that a version of this paper, that is not formatted for Computer Phys. Comm. 
 is available at http://www.abinit.org/about/ABINIT_CPC_v10.pdf .
 The licence allows the authors to put it on the Web.

 [4] A brief introduction to the ABINIT software package.
 X. Gonze, G.-M. Rignanese, M. Verstraete, J.-M. Beuken, Y. Pouillon, R. Caracas, F. Jollet,
 M. Torrent, G. Zerah, M. Mikami, Ph. Ghosez, M. Veithen, J.-Y. Raty, V. Olevano, F. Bruneval,
 L. Reining, R. Godby, G. Onida, D.R. Hamann, and D.C. Allan.
 Z. Kristallogr. 220, 558-562 (2005).
 Comment : the second generic paper describing the ABINIT project. Note that this paper
 should be cited especially if you are using the GW part of ABINIT, as several authors
 of this part are not in the list of authors of the first or third paper.
 The .pdf of the latter paper is available at http://www.abinit.org/about/zfk_0505-06_558-562.pdf.
 Note that it should not redistributed (Copyright by Oldenburg Wissenshaftverlag,
 the licence allows the authors to put it on the Web).


 And optionally :

 [5] First-principles computation of material properties : the ABINIT software project. 
 X. Gonze, J.-M. Beuken, R. Caracas, F. Detraux, M. Fuchs, G.-M. Rignanese, L. Sindic,
 M. Verstraete, G. Zerah, F. Jollet, M. Torrent, A. Roy, M. Mikami, Ph. Ghosez, J.-Y. Raty, D.C. Allan.
 Computational Materials Science 25, 478-492 (2002). http://dx.doi.org/10.1016/S0927-0256(02)00325-7
 Comment : the original paper describing the ABINIT project.
-
- Proc.   0 individual time (sec): cpu=       2591.1  wall=       2603.3
 
================================================================================
 
 Calculation completed.
.Delivered    1 WARNINGs and   0 COMMENTs to log file.
+Overall time at end (sec) : cpu=     332299.8  wall=     333213.3
