
.Version 9.11.6 of ABINIT 
.(MPI version, prepared for a x86_64_linux_intel18.0 computer) 

.Copyright (C) 1998-2022 ABINIT group . 
 ABINIT comes with ABSOLUTELY NO WARRANTY.
 It is free software, and you are welcome to redistribute it
 under certain conditions (GNU General Public License,
 see ~abinit/COPYING or http://www.gnu.org/copyleft/gpl.txt).

 ABINIT is a project of the Universite Catholique de Louvain,
 Corning Inc. and other collaborators, see ~abinit/doc/developers/contributors.txt .
 Please read https://docs.abinit.org/theory/acknowledgments for suggested
 acknowledgments of the ABINIT effort.
 For more information, see https://www.abinit.org .

.Starting date : Wed 29 Nov 2023.
- ( at 15h29 )
  
- input  file    -> tlruj_2.abi
- output file    -> tlruj_2.abo
- root for input  files -> tlruj_2i
- root for output files -> tlruj_2.o
 
- inpspheads : Reading pseudopotential header in XML form from 
-   /home/users/lmacenul/abinit/tests/Psps_for_tests/Pseudodojo_paw_pbe_standard/Ni.xml
- inpspheads : Reading pseudopotential header in XML form from 
-   /home/users/lmacenul/abinit/tests/Psps_for_tests/Pseudodojo_paw_pbe_standard/Ni.xml
- inpspheads : Reading pseudopotential header in XML form from 
-   /home/users/lmacenul/abinit/tests/Psps_for_tests/Pseudodojo_paw_pbe_standard/O.xml
 DATASET    1 : space group R-3 m (#166); Bravais hR (rhombohedral)
================================================================================
 Values of the parameters that define the memory need for DATASET  1.
     intxc =       0    ionmov =       0      iscf =      17    lmnmax =      18
     lnmax =       6     mgfft =      40  mpssoang =       3    mqgrid =    3001
     natom =       4  nloc_mem =       2    nspden =       2   nspinor =       1
    nsppol =       2      nsym =      12    n1xccc =       1    ntypat =       3
    occopt =       0   xclevel =       2
-    mband =          26        mffmem =           1         mkmem =           4
       mpw =        1057          nfft =       64000          nkpt =          28
 PAW method is used; the additional fine FFT grid is defined by:
   mgfftf=        60    nfftf =    216000
================================================================================
P This job should need less than                     114.988 Mbytes of memory.
  Rough estimation (10% accuracy) of disk space for files :
_ WF disk file :     23.485 Mbytes ; DEN or POT disk file :      3.298 Mbytes.
================================================================================
 
 DATASET    2 : space group R-3 m (#166); Bravais hR (rhombohedral)
================================================================================
 Values of the parameters that define the memory need for DATASET  2.
     intxc =       0    ionmov =       0      iscf =      17    lmnmax =      18
     lnmax =       6     mgfft =      40  mpssoang =       3    mqgrid =    3001
     natom =       4  nloc_mem =       2    nspden =       2   nspinor =       1
    nsppol =       2      nsym =      12    n1xccc =       1    ntypat =       3
    occopt =       0   xclevel =       2
-    mband =          26        mffmem =           1         mkmem =           4
       mpw =        1057          nfft =       64000          nkpt =          28
 PAW method is used; the additional fine FFT grid is defined by:
   mgfftf=        60    nfftf =    216000
================================================================================
P This job should need less than                     114.988 Mbytes of memory.
  Rough estimation (10% accuracy) of disk space for files :
_ WF disk file :     23.485 Mbytes ; DEN or POT disk file :      3.298 Mbytes.
================================================================================
 
 DATASET    3 : space group R-3 m (#166); Bravais hR (rhombohedral)
================================================================================
 Values of the parameters that define the memory need for DATASET  3.
     intxc =       0    ionmov =       0      iscf =      17    lmnmax =      18
     lnmax =       6     mgfft =      40  mpssoang =       3    mqgrid =    3001
     natom =       4  nloc_mem =       2    nspden =       2   nspinor =       1
    nsppol =       2      nsym =      12    n1xccc =       1    ntypat =       3
    occopt =       0   xclevel =       2
-    mband =          26        mffmem =           1         mkmem =           4
       mpw =        1057          nfft =       64000          nkpt =          28
 PAW method is used; the additional fine FFT grid is defined by:
   mgfftf=        60    nfftf =    216000
================================================================================
P This job should need less than                     114.988 Mbytes of memory.
  Rough estimation (10% accuracy) of disk space for files :
_ WF disk file :     23.485 Mbytes ; DEN or POT disk file :      3.298 Mbytes.
================================================================================
 
 DATASET    4 : space group R-3 m (#166); Bravais hR (rhombohedral)
================================================================================
 Values of the parameters that define the memory need for DATASET  4.
     intxc =       0    ionmov =       0      iscf =      17    lmnmax =      18
     lnmax =       6     mgfft =      40  mpssoang =       3    mqgrid =    3001
     natom =       4  nloc_mem =       2    nspden =       2   nspinor =       1
    nsppol =       2      nsym =      12    n1xccc =       1    ntypat =       3
    occopt =       0   xclevel =       2
-    mband =          26        mffmem =           1         mkmem =           4
       mpw =        1057          nfft =       64000          nkpt =          28
 PAW method is used; the additional fine FFT grid is defined by:
   mgfftf=        60    nfftf =    216000
================================================================================
P This job should need less than                     114.988 Mbytes of memory.
  Rough estimation (10% accuracy) of disk space for files :
_ WF disk file :     23.485 Mbytes ; DEN or POT disk file :      3.298 Mbytes.
================================================================================
 
 DATASET    5 : space group R-3 m (#166); Bravais hR (rhombohedral)
================================================================================
 Values of the parameters that define the memory need for DATASET  5.
     intxc =       0    ionmov =       0      iscf =      17    lmnmax =      18
     lnmax =       6     mgfft =      40  mpssoang =       3    mqgrid =    3001
     natom =       4  nloc_mem =       2    nspden =       2   nspinor =       1
    nsppol =       2      nsym =      12    n1xccc =       1    ntypat =       3
    occopt =       0   xclevel =       2
-    mband =          26        mffmem =           1         mkmem =           4
       mpw =        1057          nfft =       64000          nkpt =          28
 PAW method is used; the additional fine FFT grid is defined by:
   mgfftf=        60    nfftf =    216000
================================================================================
P This job should need less than                     114.988 Mbytes of memory.
  Rough estimation (10% accuracy) of disk space for files :
_ WF disk file :     23.485 Mbytes ; DEN or POT disk file :      3.298 Mbytes.
================================================================================
 
 DATASET    6 : space group R-3 m (#166); Bravais hR (rhombohedral)
================================================================================
 Values of the parameters that define the memory need for DATASET  6.
     intxc =       0    ionmov =       0      iscf =      17    lmnmax =      18
     lnmax =       6     mgfft =      40  mpssoang =       3    mqgrid =    3001
     natom =       4  nloc_mem =       2    nspden =       2   nspinor =       1
    nsppol =       2      nsym =      12    n1xccc =       1    ntypat =       3
    occopt =       0   xclevel =       2
-    mband =          26        mffmem =           1         mkmem =           4
       mpw =        1057          nfft =       64000          nkpt =          28
 PAW method is used; the additional fine FFT grid is defined by:
   mgfftf=        60    nfftf =    216000
================================================================================
P This job should need less than                     114.988 Mbytes of memory.
  Rough estimation (10% accuracy) of disk space for files :
_ WF disk file :     23.485 Mbytes ; DEN or POT disk file :      3.298 Mbytes.
================================================================================
 
--------------------------------------------------------------------------------
------------- Echo of variables that govern the present computation ------------
--------------------------------------------------------------------------------
-
- outvars: echo of selected default values                                      
-   iomode0 =  0 , fftalg0 =512 , wfoptalg0 = 10
-
- outvars: echo of global parameters not present in the input file              
-  max_nthreads =    1
-
 -outvars: echo values of preprocessed input variables --------
            acell      7.8800000000E+00  7.8800000000E+00  7.8800000000E+00 Bohr
              amu      5.86900000E+01  5.86900000E+01  1.59994000E+01
         atvshift1      -0.00551   -0.00551   -0.00551   -0.00551   -0.00551
                         0.00551    0.00551    0.00551    0.00551    0.00551
                         0.00000    0.00000    0.00000    0.00000    0.00000
                         0.00000    0.00000    0.00000    0.00000    0.00000
                         0.00000    0.00000    0.00000    0.00000    0.00000
                         0.00000    0.00000    0.00000    0.00000    0.00000
                         0.00000    0.00000    0.00000    0.00000    0.00000
                         0.00000    0.00000    0.00000    0.00000    0.00000
         atvshift2      -0.00367   -0.00367   -0.00367   -0.00367   -0.00367
                         0.00367    0.00367    0.00367    0.00367    0.00367
                         0.00000    0.00000    0.00000    0.00000    0.00000
                         0.00000    0.00000    0.00000    0.00000    0.00000
                         0.00000    0.00000    0.00000    0.00000    0.00000
                         0.00000    0.00000    0.00000    0.00000    0.00000
                         0.00000    0.00000    0.00000    0.00000    0.00000
                         0.00000    0.00000    0.00000    0.00000    0.00000
         atvshift3      -0.00184   -0.00184   -0.00184   -0.00184   -0.00184
                         0.00184    0.00184    0.00184    0.00184    0.00184
                         0.00000    0.00000    0.00000    0.00000    0.00000
                         0.00000    0.00000    0.00000    0.00000    0.00000
                         0.00000    0.00000    0.00000    0.00000    0.00000
                         0.00000    0.00000    0.00000    0.00000    0.00000
                         0.00000    0.00000    0.00000    0.00000    0.00000
                         0.00000    0.00000    0.00000    0.00000    0.00000
         atvshift4       0.00184    0.00184    0.00184    0.00184    0.00184
                        -0.00184   -0.00184   -0.00184   -0.00184   -0.00184
                         0.00000    0.00000    0.00000    0.00000    0.00000
                         0.00000    0.00000    0.00000    0.00000    0.00000
                         0.00000    0.00000    0.00000    0.00000    0.00000
                         0.00000    0.00000    0.00000    0.00000    0.00000
                         0.00000    0.00000    0.00000    0.00000    0.00000
                         0.00000    0.00000    0.00000    0.00000    0.00000
         atvshift5       0.00367    0.00367    0.00367    0.00367    0.00367
                        -0.00367   -0.00367   -0.00367   -0.00367   -0.00367
                         0.00000    0.00000    0.00000    0.00000    0.00000
                         0.00000    0.00000    0.00000    0.00000    0.00000
                         0.00000    0.00000    0.00000    0.00000    0.00000
                         0.00000    0.00000    0.00000    0.00000    0.00000
                         0.00000    0.00000    0.00000    0.00000    0.00000
                         0.00000    0.00000    0.00000    0.00000    0.00000
         atvshift6       0.00551    0.00551    0.00551    0.00551    0.00551
                        -0.00551   -0.00551   -0.00551   -0.00551   -0.00551
                         0.00000    0.00000    0.00000    0.00000    0.00000
                         0.00000    0.00000    0.00000    0.00000    0.00000
                         0.00000    0.00000    0.00000    0.00000    0.00000
                         0.00000    0.00000    0.00000    0.00000    0.00000
                         0.00000    0.00000    0.00000    0.00000    0.00000
                         0.00000    0.00000    0.00000    0.00000    0.00000
          chkprim           0
      chksymbreak           0
           diemix      4.50000000E-01
        dmatpuopt           3
             ecut      2.00000000E+01 Hartree
-          fftalg         512
              ixc     -101130
           jdtset        1    2    3    4    5    6
              kpt      8.33333333E-02  8.33333333E-02  8.33333333E-02
                       2.50000000E-01  8.33333333E-02  8.33333333E-02
                       4.16666667E-01  8.33333333E-02  8.33333333E-02
                      -4.16666667E-01  8.33333333E-02  8.33333333E-02
                      -2.50000000E-01  8.33333333E-02  8.33333333E-02
                      -8.33333333E-02  8.33333333E-02  8.33333333E-02
                       2.50000000E-01  2.50000000E-01  8.33333333E-02
                       4.16666667E-01  2.50000000E-01  8.33333333E-02
                      -4.16666667E-01  2.50000000E-01  8.33333333E-02
                      -2.50000000E-01  2.50000000E-01  8.33333333E-02
                      -8.33333333E-02  2.50000000E-01  8.33333333E-02
                       4.16666667E-01  4.16666667E-01  8.33333333E-02
                      -4.16666667E-01  4.16666667E-01  8.33333333E-02
                      -2.50000000E-01  4.16666667E-01  8.33333333E-02
                      -8.33333333E-02  4.16666667E-01  8.33333333E-02
                      -4.16666667E-01 -4.16666667E-01  8.33333333E-02
                      -2.50000000E-01 -4.16666667E-01  8.33333333E-02
                      -2.50000000E-01 -2.50000000E-01  8.33333333E-02
                       2.50000000E-01  2.50000000E-01  2.50000000E-01
                       4.16666667E-01  2.50000000E-01  2.50000000E-01
                      -4.16666667E-01  2.50000000E-01  2.50000000E-01
                      -2.50000000E-01  2.50000000E-01  2.50000000E-01
                       4.16666667E-01  4.16666667E-01  2.50000000E-01
                      -4.16666667E-01  4.16666667E-01  2.50000000E-01
                      -2.50000000E-01  4.16666667E-01  2.50000000E-01
                      -4.16666667E-01 -4.16666667E-01  2.50000000E-01
                       4.16666667E-01  4.16666667E-01  4.16666667E-01
                      -4.16666667E-01  4.16666667E-01  4.16666667E-01
         kptrlatt        6    0    0      0    6    0      0    0    6
          kptrlen      3.34320086E+01
            lpawu           2       2       1
         macro_uj        4
P           mkmem           4
            natom           4
            nband          26
        natvshift        5
           ndtset           6
            ngfft          40      40      40
          ngfftdg          60      60      60
             nkpt          28
           nspden           2
           nsppol           2
             nsym          12
           ntypat           3
              occ      1.000000  1.000000  1.000000  1.000000  1.000000  1.000000
                       1.000000  1.000000  1.000000  1.000000  1.000000  1.000000
                       1.000000  1.000000  1.000000  1.000000  1.000000  1.000000
                       1.000000  1.000000  1.000000  1.000000  1.000000  1.000000
                       0.000000  0.000000
                       1.000000  1.000000  1.000000  1.000000  1.000000  1.000000
                       1.000000  1.000000  1.000000  1.000000  1.000000  1.000000
                       1.000000  1.000000  1.000000  1.000000  1.000000  1.000000
                       1.000000  1.000000  1.000000  1.000000  1.000000  1.000000
                       0.000000  0.000000
           occopt           0
-      paral_atom           0
        pawecutdg      4.00000000E+01 Hartree
        pawprtvol          -3
           pawujv1    -5.5123988097E-03 Hartree
           pawujv2    -3.6749325398E-03 Hartree
           pawujv3    -1.8374662699E-03 Hartree
           pawujv4     1.8374662699E-03 Hartree
           pawujv5     3.6749325398E-03 Hartree
           pawujv6     5.5123988097E-03 Hartree
           prtden           0
        prtebands           0
           prteig           0
           prtgsr           0
           prtvol           3
            prtwf           0
            rprim      5.0000000000E-01  5.0000000000E-01  1.0000000000E+00
                       1.0000000000E+00  5.0000000000E-01  5.0000000000E-01
                       5.0000000000E-01  1.0000000000E+00  5.0000000000E-01
           shiftk      5.00000000E-01  5.00000000E-01  5.00000000E-01
          spgroup         166
           spinat      0.0000000000E+00  0.0000000000E+00  3.0000000000E+00
                       0.0000000000E+00  0.0000000000E+00 -3.0000000000E+00
                       0.0000000000E+00  0.0000000000E+00  0.0000000000E+00
                       0.0000000000E+00  0.0000000000E+00  0.0000000000E+00
           symrel      1  0  0   0  1  0   0  0  1      -1  0  0   0 -1  0   0  0 -1
                       0  1  0   1  0  0   0  0  1       0 -1  0  -1  0  0   0  0 -1
                       0  0  1   1  0  0   0  1  0       0  0 -1  -1  0  0   0 -1  0
                       1  0  0   0  0  1   0  1  0      -1  0  0   0  0 -1   0 -1  0
                       0  1  0   0  0  1   1  0  0       0 -1  0   0  0 -1  -1  0  0
                       0  0  1   0  1  0   1  0  0       0  0 -1   0 -1  0  -1  0  0
           tolvrs      1.00000000E-11
            typat      1  2  3  3
          usepawu           1
           useylm           1
              wtk        0.00926    0.02778    0.02778    0.02778    0.02778    0.02778
                         0.02778    0.05556    0.05556    0.05556    0.05556    0.02778
                         0.05556    0.05556    0.05556    0.02778    0.05556    0.02778
                         0.00926    0.02778    0.02778    0.02778    0.02778    0.05556
                         0.05556    0.02778    0.00926    0.02778
           xangst      0.0000000000E+00  0.0000000000E+00  0.0000000000E+00
                       4.1699164037E+00  4.1699164037E+00  4.1699164037E+00
                       2.0849582018E+00  2.0849582018E+00  2.0849582018E+00
                       6.2548746055E+00  6.2548746055E+00  6.2548746055E+00
            xcart      0.0000000000E+00  0.0000000000E+00  0.0000000000E+00
                       7.8800000000E+00  7.8800000000E+00  7.8800000000E+00
                       3.9400000000E+00  3.9400000000E+00  3.9400000000E+00
                       1.1820000000E+01  1.1820000000E+01  1.1820000000E+01
             xred      0.0000000000E+00  0.0000000000E+00  0.0000000000E+00
                       5.0000000000E-01  5.0000000000E-01  5.0000000000E-01
                       2.5000000000E-01  2.5000000000E-01  2.5000000000E-01
                       7.5000000000E-01  7.5000000000E-01  7.5000000000E-01
            znucl       28.00000   28.00000    8.00000
 
================================================================================
 
 chkinp: Checking input parameters for consistency, jdtset=   1.
 
 chkinp: Checking input parameters for consistency, jdtset=   2.
 
 chkinp: Checking input parameters for consistency, jdtset=   3.
 
 chkinp: Checking input parameters for consistency, jdtset=   4.
 
 chkinp: Checking input parameters for consistency, jdtset=   5.
 
 chkinp: Checking input parameters for consistency, jdtset=   6.
 
================================================================================
== DATASET  1 ==================================================================
-   mpi_nproc: 16, omp_nthreads: 1 (-1 if OMP is not activated)
 

--- !DatasetInfo
iteration_state: {dtset: 1, }
dimensions: {natom: 4, nkpt: 28, mband: 26, nsppol: 2, nspinor: 1, nspden: 2, mpw: 1057, }
cutoff_energies: {ecut:  20.0, pawecutdg:  40.0, }
electrons: {nelect:   4.80000000E+01, charge:   0.00000000E+00, occopt:   0.00000000E+00, tsmear:   1.00000000E-02, }
meta: {optdriver: 0, ionmov: 0, optcell: 0, iscf: 17, paral_kgb: 0, }
...

 mkfilename: getwfk from: ./tlruj_1.o_WFK
 
 Real(R)+Recip(G) space primitive vectors, cartesian coordinates (Bohr,Bohr^-1):
 R(1)=  3.9400000  3.9400000  7.8800000  G(1)= -0.0634518 -0.0634518  0.1903553
 R(2)=  7.8800000  3.9400000  3.9400000  G(2)=  0.1903553 -0.0634518 -0.0634518
 R(3)=  3.9400000  7.8800000  3.9400000  G(3)= -0.0634518  0.1903553 -0.0634518
 Unit cell volume ucvol=  2.4465194E+02 bohr^3
 Angles (23,13,12)=  3.35573098E+01  3.35573098E+01  3.35573098E+01 degrees
 
 Coarse grid specifications (used for wave-functions):
 
 getcut: wavevector=  0.0000  0.0000  0.0000  ngfft=  40  40  40
         ecut(hartree)=     20.000   => boxcut(ratio)=   2.06006
 
 Fine grid specifications (used for densities):
 
 getcut: wavevector=  0.0000  0.0000  0.0000  ngfft=  60  60  60
         ecut(hartree)=     40.000   => boxcut(ratio)=   2.18366
 
--- Pseudopotential description ------------------------------------------------
- pspini: atom type   1  psp file is /home/users/lmacenul/abinit/tests/Psps_for_tests/Pseudodojo_paw_pbe_standard/Ni.xml
- pspatm: opening atomic psp file    /home/users/lmacenul/abinit/tests/Psps_for_tests/Pseudodojo_paw_pbe_standard/Ni.xml
- pspatm : Reading pseudopotential header in XML form from /home/users/lmacenul/abinit/tests/Psps_for_tests/Pseudodojo_paw_pbe_standard/Ni.xml
 Pseudopotential format is: paw10
 basis_size (lnmax)=  6 (lmn_size= 18), orbitals=   0   0   1   1   2   2
 Spheres core radius: rc_sph= 1.81432190
 1 radial meshes are used:
  - mesh 1: r(i)=AA*[exp(BB*(i-1))-1], size=1500 , AA= 0.29784E-03 BB= 0.83395E-02
 Shapefunction is SIN type: shapef(r)=[sin(pi*r/rshp)/(pi*r/rshp)]**2
 Radius for shape functions =  1.60094920
 mmax= 1500
 Radial grid used for partial waves is grid 1
 Radial grid used for projectors is grid 1
 Radial grid used for (t)core density is grid 1
 Radial grid used for Vloc is grid 1
 Radial grid used for pseudo valence density is grid 1
 Mesh size for Vloc has been set to 1333 to avoid numerical noise.
 Compensation charge density is not taken into account in XC energy/potential
 pspatm: atomic psp has been read  and splines computed
 
- pspini: atom type   2  psp file is /home/users/lmacenul/abinit/tests/Psps_for_tests/Pseudodojo_paw_pbe_standard/Ni.xml
- pspatm: opening atomic psp file    /home/users/lmacenul/abinit/tests/Psps_for_tests/Pseudodojo_paw_pbe_standard/Ni.xml
- pspatm : Reading pseudopotential header in XML form from /home/users/lmacenul/abinit/tests/Psps_for_tests/Pseudodojo_paw_pbe_standard/Ni.xml
 Pseudopotential format is: paw10
 basis_size (lnmax)=  6 (lmn_size= 18), orbitals=   0   0   1   1   2   2
 Spheres core radius: rc_sph= 1.81432190
 1 radial meshes are used:
  - mesh 1: r(i)=AA*[exp(BB*(i-1))-1], size=1500 , AA= 0.29784E-03 BB= 0.83395E-02
 Shapefunction is SIN type: shapef(r)=[sin(pi*r/rshp)/(pi*r/rshp)]**2
 Radius for shape functions =  1.60094920
 mmax= 1500
 Radial grid used for partial waves is grid 1
 Radial grid used for projectors is grid 1
 Radial grid used for (t)core density is grid 1
 Radial grid used for Vloc is grid 1
 Radial grid used for pseudo valence density is grid 1
 Mesh size for Vloc has been set to 1333 to avoid numerical noise.
 Compensation charge density is not taken into account in XC energy/potential
 pspatm: atomic psp has been read  and splines computed
 
- pspini: atom type   3  psp file is /home/users/lmacenul/abinit/tests/Psps_for_tests/Pseudodojo_paw_pbe_standard/O.xml
- pspatm: opening atomic psp file    /home/users/lmacenul/abinit/tests/Psps_for_tests/Pseudodojo_paw_pbe_standard/O.xml
- pspatm : Reading pseudopotential header in XML form from /home/users/lmacenul/abinit/tests/Psps_for_tests/Pseudodojo_paw_pbe_standard/O.xml
 Pseudopotential format is: paw10
 basis_size (lnmax)=  4 (lmn_size=  8), orbitals=   0   0   1   1
 Spheres core radius: rc_sph= 1.41465230
 1 radial meshes are used:
  - mesh 1: r(i)=AA*[exp(BB*(i-1))-1], size=2001 , AA= 0.72565E-03 BB= 0.58052E-02
 Shapefunction is SIN type: shapef(r)=[sin(pi*r/rshp)/(pi*r/rshp)]**2
 Radius for shape functions =  1.20231231
 mmax= 2001
 Radial grid used for partial waves is grid 1
 Radial grid used for projectors is grid 1
 Radial grid used for (t)core density is grid 1
 Radial grid used for Vloc is grid 1
 Radial grid used for pseudo valence density is grid 1
 Mesh size for Vloc has been set to 1762 to avoid numerical noise.
 Compensation charge density is not taken into account in XC energy/potential
 pspatm: atomic psp has been read  and splines computed
 
   2.55203824E+03                                ecore*ucvol(ha*bohr**3)
--------------------------------------------------------------------------------
 
-inwffil : will read wavefunctions from disk file ./tlruj_1.o_WFK
P newkpt: treating     26 bands with npw=    1054 for ikpt=   1 by node    0
P newkpt: treating     26 bands with npw=    1051 for ikpt=   2 by node    0
P newkpt: treating     26 bands with npw=    1052 for ikpt=   3 by node    0
P newkpt: treating     26 bands with npw=    1044 for ikpt=   4 by node    0
P newkpt: treating     26 bands with npw=    1043 for ikpt=   5 by node    1
P newkpt: treating     26 bands with npw=    1057 for ikpt=   6 by node    1
P newkpt: treating     26 bands with npw=    1053 for ikpt=   7 by node    1
P newkpt: treating     26 bands with npw=    1045 for ikpt=   8 by node    1
P newkpt: treating     26 bands with npw=    1046 for ikpt=   9 by node    2
P newkpt: treating     26 bands with npw=    1036 for ikpt=  10 by node    2
P newkpt: treating     26 bands with npw=    1054 for ikpt=  11 by node    2
P newkpt: treating     26 bands with npw=    1044 for ikpt=  12 by node    2
P newkpt: treating     26 bands with npw=    1043 for ikpt=  13 by node    3
P newkpt: treating     26 bands with npw=    1039 for ikpt=  14 by node    3
P newkpt: treating     26 bands with npw=    1039 for ikpt=  15 by node    3
P newkpt: treating     26 bands with npw=    1047 for ikpt=  16 by node    3
P newkpt: treating     26 bands with npw=    1034 for ikpt=  17 by node    4
P newkpt: treating     26 bands with npw=    1044 for ikpt=  18 by node    4
P newkpt: treating     26 bands with npw=    1056 for ikpt=  19 by node    4
P newkpt: treating     26 bands with npw=    1050 for ikpt=  20 by node    4
P newkpt: treating     26 bands with npw=    1046 for ikpt=  21 by node    5
P newkpt: treating     26 bands with npw=    1045 for ikpt=  22 by node    5
P newkpt: treating     26 bands with npw=    1054 for ikpt=  23 by node    5
P newkpt: treating     26 bands with npw=    1047 for ikpt=  24 by node    5
P newkpt: treating     26 bands with npw=    1045 for ikpt=  25 by node    6
P newkpt: treating     26 bands with npw=    1039 for ikpt=  26 by node    6
P newkpt: treating     26 bands with npw=    1053 for ikpt=  27 by node    6
P newkpt: treating     26 bands with npw=    1056 for ikpt=  28 by node    6
P newkpt: treating     26 bands with npw=    1054 for ikpt=   1 by node   15
P newkpt: treating     26 bands with npw=    1051 for ikpt=   2 by node   15
P newkpt: treating     26 bands with npw=    1052 for ikpt=   3 by node   15
P newkpt: treating     26 bands with npw=    1044 for ikpt=   4 by node   15
P newkpt: treating     26 bands with npw=    1043 for ikpt=   5 by node   14
P newkpt: treating     26 bands with npw=    1057 for ikpt=   6 by node   14
P newkpt: treating     26 bands with npw=    1053 for ikpt=   7 by node   14
P newkpt: treating     26 bands with npw=    1045 for ikpt=   8 by node   14
P newkpt: treating     26 bands with npw=    1046 for ikpt=   9 by node   13
P newkpt: treating     26 bands with npw=    1036 for ikpt=  10 by node   13
P newkpt: treating     26 bands with npw=    1054 for ikpt=  11 by node   13
P newkpt: treating     26 bands with npw=    1044 for ikpt=  12 by node   13
P newkpt: treating     26 bands with npw=    1043 for ikpt=  13 by node   12
P newkpt: treating     26 bands with npw=    1039 for ikpt=  14 by node   12
P newkpt: treating     26 bands with npw=    1039 for ikpt=  15 by node   12
P newkpt: treating     26 bands with npw=    1047 for ikpt=  16 by node   12
P newkpt: treating     26 bands with npw=    1034 for ikpt=  17 by node   11
P newkpt: treating     26 bands with npw=    1044 for ikpt=  18 by node   11
P newkpt: treating     26 bands with npw=    1056 for ikpt=  19 by node   11
P newkpt: treating     26 bands with npw=    1050 for ikpt=  20 by node   11
P newkpt: treating     26 bands with npw=    1046 for ikpt=  21 by node   10
P newkpt: treating     26 bands with npw=    1045 for ikpt=  22 by node   10
P newkpt: treating     26 bands with npw=    1054 for ikpt=  23 by node   10
P newkpt: treating     26 bands with npw=    1047 for ikpt=  24 by node   10
P newkpt: treating     26 bands with npw=    1045 for ikpt=  25 by node    9
P newkpt: treating     26 bands with npw=    1039 for ikpt=  26 by node    9
P newkpt: treating     26 bands with npw=    1053 for ikpt=  27 by node    9
P newkpt: treating     26 bands with npw=    1056 for ikpt=  28 by node    9
_setup2: Arith. and geom. avg. npw (full set) are    1045.426    1045.408
 
 
 ******************************************
 DFT+U Method used: FLL
 ******************************************
 
================================================================================

--- !BeginCycle
iteration_state: {dtset: 1, }
solver: {iscf: 17, nstep: 30, nline: 4, wfoptalg: 10, }
tolerances: {tolvrs: 1.00E-11, }
...
 
     iter   Etot(hartree)      deltaE(h)  residm     nres2
 ETOT  1  -373.92505765082    -3.739E+02 1.636E-07 6.835E-02
 ETOT  2  -373.92509223799    -3.459E-05 9.243E-08 1.585E-01
 ETOT  3  -373.92509768907    -5.451E-06 3.922E-05 1.213E-01
 ETOT  4  -373.92507974495     1.794E-05 2.513E-05 4.439E-02
 ETOT  5  -373.92507138344     8.362E-06 3.074E-06 2.653E-03
 ETOT  6  -373.92507321425    -1.831E-06 2.407E-07 1.427E-03
 ETOT  7  -373.92507655319    -3.339E-06 4.271E-08 5.055E-04
 ETOT  8  -373.92507757774    -1.025E-06 1.656E-08 2.342E-04
 ETOT  9  -373.92507832889    -7.512E-07 2.890E-08 8.806E-05
 ETOT 10  -373.92507854237    -2.135E-07 4.804E-09 9.004E-06
 ETOT 11  -373.92507861766    -7.529E-08 1.977E-09 1.434E-06
 ETOT 12  -373.92507863788    -2.022E-08 4.468E-10 1.680E-07
 ETOT 13  -373.92507863910    -1.221E-09 1.042E-09 2.818E-07
 ETOT 14  -373.92507863929    -1.849E-10 2.318E-10 2.761E-08
 ETOT 15  -373.92507863866     6.295E-10 4.435E-10 1.426E-09
 ETOT 16  -373.92507863868    -2.490E-11 1.123E-10 3.305E-10
 ETOT 17  -373.92507863869    -7.958E-12 2.298E-10 4.281E-11
 ETOT 18  -373.92507863868     1.074E-11 5.720E-11 2.071E-11
 ETOT 19  -373.92507863869    -7.333E-12 1.130E-10 5.321E-12
 
 At SCF step   19       nres2   =  5.32E-12 < tolvrs=  1.00E-11 =>converged.
 
 Cartesian components of stress tensor (hartree/bohr^3)
  sigma(1 1)=  6.41410859E-04  sigma(3 2)=  1.18998400E-05
  sigma(2 2)=  6.41410859E-04  sigma(3 1)=  1.18998400E-05
  sigma(3 3)=  6.41410859E-04  sigma(2 1)=  1.18998400E-05
 

--- !ResultsGS
iteration_state: {dtset: 1, }
comment   : Summary of ground state results
lattice_vectors:
- [  3.9400000,   3.9400000,   7.8800000, ]
- [  7.8800000,   3.9400000,   3.9400000, ]
- [  3.9400000,   7.8800000,   3.9400000, ]
lattice_lengths: [   9.65099,    9.65099,    9.65099, ]
lattice_angles: [ 33.557,  33.557,  33.557, ] # degrees, (23, 13, 12)
lattice_volume:   2.4465194E+02
convergence: {deltae: -7.333E-12, res2:  5.321E-12, residm:  1.130E-10, diffor: null, }
etotal    :  -3.73925079E+02
entropy   :   0.00000000E+00
fermie    :   3.36005067E-01
cartesian_stress_tensor: # hartree/bohr^3
- [  6.41410859E-04,   1.18998400E-05,   1.18998400E-05, ]
- [  1.18998400E-05,   6.41410859E-04,   1.18998400E-05, ]
- [  1.18998400E-05,   1.18998400E-05,   6.41410859E-04, ]
pressure_GPa:  -1.8871E+01
xred      :
- [  0.0000E+00,   0.0000E+00,   0.0000E+00, Ni]
- [  5.0000E-01,   5.0000E-01,   5.0000E-01, Ni]
- [  2.5000E-01,   2.5000E-01,   2.5000E-01,  O]
- [  7.5000E-01,   7.5000E-01,   7.5000E-01,  O]
cartesian_forces: # hartree/bohr
- [  1.01643954E-20,   6.77626358E-21,  -3.38813179E-21, ]
- [  1.01643954E-20,   6.77626358E-21,  -3.38813179E-21, ]
- [ -1.19771428E-04,  -1.19771428E-04,  -1.19771428E-04, ]
- [  1.19771428E-04,   1.19771428E-04,   1.19771428E-04, ]
force_length_stats: {min:   1.26772283E-20, max:   2.07450198E-04, mean:   1.03725099E-04, }
...

 Integrated electronic and magnetization densities in atomic spheres:
 ---------------------------------------------------------------------
 Radius=ratsph(iatom), smearing ratsm=  0.0000. Diff(up-dn)=approximate z local magnetic moment.
 Atom    Radius    up_density   dn_density  Total(up+dn)  Diff(up-dn)
    1   1.81432     8.545458     7.196961     15.742420     1.348497
    2   1.81432     7.210200     8.535190     15.745390    -1.324990
    3   1.41465     2.261043     2.266722      4.527765    -0.005679
    4   1.41465     2.261043     2.266722      4.527765    -0.005679
 ---------------------------------------------------------------------
  Sum:             20.277745    20.265595     40.543340     0.012150
 Total magnetization (from the atomic spheres):             0.012150
 Total magnetization (exact up - dn):                      -0.000000
 
 PAW TEST:
 ==== Compensation charge inside spheres ============
 The following values must be close to each other ...
 Compensation charge over spherical meshes =     15.677996889964305
 Compensation charge over fine fft grid    =     15.677956585010307
 
 ==== Results concerning PAW augmentation regions ====
 
 Total pseudopotential strength Dij (hartree):
 Atom #  1 - Spin component 1
  -1.89561   0.26931   0.00000   0.00000   0.00000   0.00000   0.00000   0.00000  -0.00019  -0.00019   0.00000  -0.00019   0.00000   0.00012   0.00012   0.00000   0.00012   0.00000
   0.26931   0.06818   0.00000   0.00000   0.00000   0.00000   0.00000   0.00000   0.00004   0.00004   0.00000   0.00004   0.00000  -0.00002  -0.00002   0.00000  -0.00002   0.00000
   0.00000   0.00000  -1.81145  -0.00015  -0.00015   0.51807   0.00009   0.00009   0.00000   0.00000   0.00000   0.00000   0.00000   0.00000   0.00000   0.00000   0.00000   0.00000
   0.00000   0.00000  -0.00015  -1.81145  -0.00015   0.00009   0.51807   0.00009   0.00000   0.00000   0.00000   0.00000   0.00000   0.00000   0.00000   0.00000   0.00000   0.00000
   0.00000   0.00000  -0.00015  -0.00015  -1.81145   0.00009   0.00009   0.51807   0.00000   0.00000   0.00000   0.00000   0.00000   0.00000   0.00000   0.00000   0.00000   0.00000
   0.00000   0.00000   0.51807   0.00009   0.00009   0.58940  -0.00005  -0.00005   0.00000   0.00000   0.00000   0.00000   0.00000   0.00000   0.00000   0.00000   0.00000   0.00000
   0.00000   0.00000   0.00009   0.51807   0.00009  -0.00005   0.58940  -0.00005   0.00000   0.00000   0.00000   0.00000   0.00000   0.00000   0.00000   0.00000   0.00000   0.00000
   0.00000   0.00000   0.00009   0.00009   0.51807  -0.00005  -0.00005   0.58940   0.00000   0.00000   0.00000   0.00000   0.00000   0.00000   0.00000   0.00000   0.00000   0.00000
  -0.00019   0.00004   0.00000   0.00000   0.00000   0.00000   0.00000   0.00000  -0.48506  -0.00005   0.00016  -0.00005   0.00000  -0.10403   0.00003  -0.00011   0.00003   0.00000
  -0.00019   0.00004   0.00000   0.00000   0.00000   0.00000   0.00000   0.00000  -0.00005  -0.48506  -0.00008  -0.00005   0.00014   0.00003  -0.10403   0.00005   0.00003  -0.00009
   0.00000   0.00000   0.00000   0.00000   0.00000   0.00000   0.00000   0.00000   0.00016  -0.00008  -0.50461  -0.00008   0.00000  -0.00011   0.00005  -0.09136   0.00005   0.00000
  -0.00019   0.00004   0.00000   0.00000   0.00000   0.00000   0.00000   0.00000  -0.00005  -0.00005  -0.00008  -0.48506  -0.00014   0.00003   0.00003   0.00005  -0.10403   0.00009
   0.00000   0.00000   0.00000   0.00000   0.00000   0.00000   0.00000   0.00000   0.00000   0.00014   0.00000  -0.00014  -0.50461   0.00000  -0.00009   0.00000   0.00009  -0.09136
   0.00012  -0.00002   0.00000   0.00000   0.00000   0.00000   0.00000   0.00000  -0.10403   0.00003  -0.00011   0.00003   0.00000   0.50815  -0.00002   0.00007  -0.00002   0.00000
   0.00012  -0.00002   0.00000   0.00000   0.00000   0.00000   0.00000   0.00000   0.00003  -0.10403   0.00005   0.00003  -0.00009  -0.00002   0.50815  -0.00004  -0.00002   0.00006
   0.00000   0.00000   0.00000   0.00000   0.00000   0.00000   0.00000   0.00000  -0.00011   0.00005  -0.09136   0.00005   0.00000   0.00007  -0.00004   0.49948  -0.00004   0.00000
   0.00012  -0.00002   0.00000   0.00000   0.00000   0.00000   0.00000   0.00000   0.00003   0.00003   0.00005  -0.10403   0.00009  -0.00002  -0.00002  -0.00004   0.50815  -0.00006
   0.00000   0.00000   0.00000   0.00000   0.00000   0.00000   0.00000   0.00000   0.00000  -0.00009   0.00000   0.00009  -0.09136   0.00000   0.00006   0.00000  -0.00006   0.49948
   max. value=  1.90E+00, min. value=  0.00E+00
 Atom #  1 - Spin component 2
  -1.84548   0.25956   0.00000   0.00000   0.00000   0.00000   0.00000   0.00000  -0.00006  -0.00006   0.00000  -0.00006   0.00000   0.00004   0.00004   0.00000   0.00004   0.00000
   0.25956   0.06981   0.00000   0.00000   0.00000   0.00000   0.00000   0.00000   0.00001   0.00001   0.00000   0.00001   0.00000  -0.00001  -0.00001   0.00000  -0.00001   0.00000
   0.00000   0.00000  -1.76791  -0.00005  -0.00005   0.49247   0.00003   0.00003   0.00000   0.00000   0.00000   0.00000   0.00000   0.00000   0.00000   0.00000   0.00000   0.00000
   0.00000   0.00000  -0.00005  -1.76791  -0.00005   0.00003   0.49247   0.00003   0.00000   0.00000   0.00000   0.00000   0.00000   0.00000   0.00000   0.00000   0.00000   0.00000
   0.00000   0.00000  -0.00005  -0.00005  -1.76791   0.00003   0.00003   0.49247   0.00000   0.00000   0.00000   0.00000   0.00000   0.00000   0.00000   0.00000   0.00000   0.00000
   0.00000   0.00000   0.49247   0.00003   0.00003   0.60467  -0.00002  -0.00002   0.00000   0.00000   0.00000   0.00000   0.00000   0.00000   0.00000   0.00000   0.00000   0.00000
   0.00000   0.00000   0.00003   0.49247   0.00003  -0.00002   0.60467  -0.00002   0.00000   0.00000   0.00000   0.00000   0.00000   0.00000   0.00000   0.00000   0.00000   0.00000
   0.00000   0.00000   0.00003   0.00003   0.49247  -0.00002  -0.00002   0.60467   0.00000   0.00000   0.00000   0.00000   0.00000   0.00000   0.00000   0.00000   0.00000   0.00000
  -0.00006   0.00001   0.00000   0.00000   0.00000   0.00000   0.00000   0.00000  -0.44664  -0.00005   0.00002  -0.00005   0.00000  -0.12585   0.00004  -0.00001   0.00004   0.00000
  -0.00006   0.00001   0.00000   0.00000   0.00000   0.00000   0.00000   0.00000  -0.00005  -0.44664  -0.00001  -0.00005   0.00002   0.00004  -0.12585   0.00001   0.00004  -0.00001
   0.00000   0.00000   0.00000   0.00000   0.00000   0.00000   0.00000   0.00000   0.00002  -0.00001  -0.44147  -0.00001   0.00000  -0.00001   0.00001  -0.13005   0.00001   0.00000
  -0.00006   0.00001   0.00000   0.00000   0.00000   0.00000   0.00000   0.00000  -0.00005  -0.00005  -0.00001  -0.44664  -0.00002   0.00004   0.00004   0.00001  -0.12585   0.00001
   0.00000   0.00000   0.00000   0.00000   0.00000   0.00000   0.00000   0.00000   0.00000   0.00002   0.00000  -0.00002  -0.44147   0.00000  -0.00001   0.00000   0.00001  -0.13005
   0.00004  -0.00001   0.00000   0.00000   0.00000   0.00000   0.00000   0.00000  -0.12585   0.00004  -0.00001   0.00004   0.00000   0.52242  -0.00003   0.00001  -0.00003   0.00000
   0.00004  -0.00001   0.00000   0.00000   0.00000   0.00000   0.00000   0.00000   0.00004  -0.12585   0.00001   0.00004  -0.00001  -0.00003   0.52242  -0.00000  -0.00003   0.00001
   0.00000   0.00000   0.00000   0.00000   0.00000   0.00000   0.00000   0.00000  -0.00001   0.00001  -0.13005   0.00001   0.00000   0.00001  -0.00000   0.52543  -0.00000   0.00000
   0.00004  -0.00001   0.00000   0.00000   0.00000   0.00000   0.00000   0.00000   0.00004   0.00004   0.00001  -0.12585   0.00001  -0.00003  -0.00003  -0.00000   0.52242  -0.00001
   0.00000   0.00000   0.00000   0.00000   0.00000   0.00000   0.00000   0.00000   0.00000  -0.00001   0.00000   0.00001  -0.13005   0.00000   0.00001   0.00000  -0.00001   0.52543
   max. value=  1.85E+00, min. value=  0.00E+00
 Atom #  2 - Spin component 1
  -1.84513   0.25944   0.00000   0.00000   0.00000   0.00000   0.00000   0.00000  -0.00007  -0.00007   0.00000  -0.00007   0.00000   0.00005   0.00005   0.00000   0.00005   0.00000
   0.25944   0.06983   0.00000   0.00000   0.00000   0.00000   0.00000   0.00000   0.00001   0.00001   0.00000   0.00001   0.00000  -0.00001  -0.00001   0.00000  -0.00001   0.00000
   0.00000   0.00000  -1.76760  -0.00005  -0.00005   0.49215   0.00003   0.00003   0.00000   0.00000   0.00000   0.00000   0.00000   0.00000   0.00000   0.00000   0.00000   0.00000
   0.00000   0.00000  -0.00005  -1.76760  -0.00005   0.00003   0.49215   0.00003   0.00000   0.00000   0.00000   0.00000   0.00000   0.00000   0.00000   0.00000   0.00000   0.00000
   0.00000   0.00000  -0.00005  -0.00005  -1.76760   0.00003   0.00003   0.49215   0.00000   0.00000   0.00000   0.00000   0.00000   0.00000   0.00000   0.00000   0.00000   0.00000
   0.00000   0.00000   0.49215   0.00003   0.00003   0.60489  -0.00002  -0.00002   0.00000   0.00000   0.00000   0.00000   0.00000   0.00000   0.00000   0.00000   0.00000   0.00000
   0.00000   0.00000   0.00003   0.49215   0.00003  -0.00002   0.60489  -0.00002   0.00000   0.00000   0.00000   0.00000   0.00000   0.00000   0.00000   0.00000   0.00000   0.00000
   0.00000   0.00000   0.00003   0.00003   0.49215  -0.00002  -0.00002   0.60489   0.00000   0.00000   0.00000   0.00000   0.00000   0.00000   0.00000   0.00000   0.00000   0.00000
  -0.00007   0.00001   0.00000   0.00000   0.00000   0.00000   0.00000   0.00000  -0.45110  -0.00006   0.00003  -0.00006   0.00000  -0.12537   0.00004  -0.00002   0.00004   0.00000
  -0.00007   0.00001   0.00000   0.00000   0.00000   0.00000   0.00000   0.00000  -0.00006  -0.45110  -0.00001  -0.00006   0.00002   0.00004  -0.12537   0.00001   0.00004  -0.00001
   0.00000   0.00000   0.00000   0.00000   0.00000   0.00000   0.00000   0.00000   0.00003  -0.00001  -0.44599  -0.00001   0.00000  -0.00002   0.00001  -0.12952   0.00001   0.00000
  -0.00007   0.00001   0.00000   0.00000   0.00000   0.00000   0.00000   0.00000  -0.00006  -0.00006  -0.00001  -0.45110  -0.00002   0.00004   0.00004   0.00001  -0.12537   0.00001
   0.00000   0.00000   0.00000   0.00000   0.00000   0.00000   0.00000   0.00000   0.00000   0.00002   0.00000  -0.00002  -0.44599   0.00000  -0.00001   0.00000   0.00001  -0.12952
   0.00005  -0.00001   0.00000   0.00000   0.00000   0.00000   0.00000   0.00000  -0.12537   0.00004  -0.00002   0.00004   0.00000   0.52256  -0.00003   0.00001  -0.00003   0.00000
   0.00005  -0.00001   0.00000   0.00000   0.00000   0.00000   0.00000   0.00000   0.00004  -0.12537   0.00001   0.00004  -0.00001  -0.00003   0.52256  -0.00001  -0.00003   0.00001
   0.00000   0.00000   0.00000   0.00000   0.00000   0.00000   0.00000   0.00000  -0.00002   0.00001  -0.12952   0.00001   0.00000   0.00001  -0.00001   0.52554  -0.00001   0.00000
   0.00005  -0.00001   0.00000   0.00000   0.00000   0.00000   0.00000   0.00000   0.00004   0.00004   0.00001  -0.12537   0.00001  -0.00003  -0.00003  -0.00001   0.52256  -0.00001
   0.00000   0.00000   0.00000   0.00000   0.00000   0.00000   0.00000   0.00000   0.00000  -0.00001   0.00000   0.00001  -0.12952   0.00000   0.00001   0.00000  -0.00001   0.52554
   max. value=  1.85E+00, min. value=  0.00E+00
 Atom #  2 - Spin component 2
  -1.89438   0.26902   0.00000   0.00000   0.00000   0.00000   0.00000   0.00000  -0.00020  -0.00020   0.00000  -0.00020   0.00000   0.00013   0.00013   0.00000   0.00013   0.00000
   0.26902   0.06823   0.00000   0.00000   0.00000   0.00000   0.00000   0.00000   0.00004   0.00004   0.00000   0.00004   0.00000  -0.00003  -0.00003   0.00000  -0.00003   0.00000
   0.00000   0.00000  -1.81037  -0.00016  -0.00016   0.51729   0.00009   0.00009   0.00000   0.00000   0.00000   0.00000   0.00000   0.00000   0.00000   0.00000   0.00000   0.00000
   0.00000   0.00000  -0.00016  -1.81037  -0.00016   0.00009   0.51729   0.00009   0.00000   0.00000   0.00000   0.00000   0.00000   0.00000   0.00000   0.00000   0.00000   0.00000
   0.00000   0.00000  -0.00016  -0.00016  -1.81037   0.00009   0.00009   0.51729   0.00000   0.00000   0.00000   0.00000   0.00000   0.00000   0.00000   0.00000   0.00000   0.00000
   0.00000   0.00000   0.51729   0.00009   0.00009   0.58988  -0.00006  -0.00006   0.00000   0.00000   0.00000   0.00000   0.00000   0.00000   0.00000   0.00000   0.00000   0.00000
   0.00000   0.00000   0.00009   0.51729   0.00009  -0.00006   0.58988  -0.00006   0.00000   0.00000   0.00000   0.00000   0.00000   0.00000   0.00000   0.00000   0.00000   0.00000
   0.00000   0.00000   0.00009   0.00009   0.51729  -0.00006  -0.00006   0.58988   0.00000   0.00000   0.00000   0.00000   0.00000   0.00000   0.00000   0.00000   0.00000   0.00000
  -0.00020   0.00004   0.00000   0.00000   0.00000   0.00000   0.00000   0.00000  -0.47893  -0.00005   0.00017  -0.00005   0.00000  -0.10575   0.00004  -0.00011   0.00004   0.00000
  -0.00020   0.00004   0.00000   0.00000   0.00000   0.00000   0.00000   0.00000  -0.00005  -0.47893  -0.00008  -0.00005   0.00014   0.00004  -0.10575   0.00006   0.00004  -0.00010
   0.00000   0.00000   0.00000   0.00000   0.00000   0.00000   0.00000   0.00000   0.00017  -0.00008  -0.49838  -0.00008   0.00000  -0.00011   0.00006  -0.09313   0.00006   0.00000
  -0.00020   0.00004   0.00000   0.00000   0.00000   0.00000   0.00000   0.00000  -0.00005  -0.00005  -0.00008  -0.47893  -0.00014   0.00004   0.00004   0.00006  -0.10575   0.00010
   0.00000   0.00000   0.00000   0.00000   0.00000   0.00000   0.00000   0.00000   0.00000   0.00014   0.00000  -0.00014  -0.49838   0.00000  -0.00010   0.00000   0.00010  -0.09313
   0.00013  -0.00003   0.00000   0.00000   0.00000   0.00000   0.00000   0.00000  -0.10575   0.00004  -0.00011   0.00004   0.00000   0.50890  -0.00003   0.00008  -0.00003   0.00000
   0.00013  -0.00003   0.00000   0.00000   0.00000   0.00000   0.00000   0.00000   0.00004  -0.10575   0.00006   0.00004  -0.00010  -0.00003   0.50890  -0.00004  -0.00003   0.00007
   0.00000   0.00000   0.00000   0.00000   0.00000   0.00000   0.00000   0.00000  -0.00011   0.00006  -0.09313   0.00006   0.00000   0.00008  -0.00004   0.50026  -0.00004   0.00000
   0.00013  -0.00003   0.00000   0.00000   0.00000   0.00000   0.00000   0.00000   0.00004   0.00004   0.00006  -0.10575   0.00010  -0.00003  -0.00003  -0.00004   0.50890  -0.00007
   0.00000   0.00000   0.00000   0.00000   0.00000   0.00000   0.00000   0.00000   0.00000  -0.00010   0.00000   0.00010  -0.09313   0.00000   0.00007   0.00000  -0.00007   0.50026
   max. value=  1.89E+00, min. value=  0.00E+00
 Atom #  3 - Spin component 1
   0.60455  -1.72487  -0.00018  -0.00018  -0.00018   0.00114   0.00114   0.00114
  -1.72487   4.98130   0.00044   0.00044   0.00044  -0.00296  -0.00296  -0.00296
  -0.00018   0.00044  -0.28399   0.00001   0.00001   0.83318  -0.00008  -0.00008
  -0.00018   0.00044   0.00001  -0.28399   0.00001  -0.00008   0.83318  -0.00008
  -0.00018   0.00044   0.00001   0.00001  -0.28399  -0.00008  -0.00008   0.83318
   0.00114  -0.00296   0.83318  -0.00008  -0.00008   0.42399   0.00042   0.00042
   0.00114  -0.00296  -0.00008   0.83318  -0.00008   0.00042   0.42399   0.00042
   0.00114  -0.00296  -0.00008  -0.00008   0.83318   0.00042   0.00042   0.42399
   max. value=  4.98E+00, min. value=  1.38E-05
 Atom #  3 - Spin component 2
   0.60451  -1.72476   0.00018   0.00018   0.00018  -0.00113  -0.00113  -0.00113
  -1.72476   4.98101  -0.00044  -0.00044  -0.00044   0.00293   0.00293   0.00293
   0.00018  -0.00044  -0.28413   0.00001   0.00001   0.83391  -0.00007  -0.00007
   0.00018  -0.00044   0.00001  -0.28413   0.00001  -0.00007   0.83391  -0.00007
   0.00018  -0.00044   0.00001   0.00001  -0.28413  -0.00007  -0.00007   0.83391
  -0.00113   0.00293   0.83391  -0.00007  -0.00007   0.42026   0.00040   0.00040
  -0.00113   0.00293  -0.00007   0.83391  -0.00007   0.00040   0.42026   0.00040
  -0.00113   0.00293  -0.00007  -0.00007   0.83391   0.00040   0.00040   0.42026
   max. value=  4.98E+00, min. value=  1.31E-05
 Atom #  4 - Spin component 1
   0.60455  -1.72487   0.00018   0.00018   0.00018  -0.00114  -0.00114  -0.00114
  -1.72487   4.98130  -0.00044  -0.00044  -0.00044   0.00296   0.00296   0.00296
   0.00018  -0.00044  -0.28399   0.00001   0.00001   0.83318  -0.00008  -0.00008
   0.00018  -0.00044   0.00001  -0.28399   0.00001  -0.00008   0.83318  -0.00008
   0.00018  -0.00044   0.00001   0.00001  -0.28399  -0.00008  -0.00008   0.83318
  -0.00114   0.00296   0.83318  -0.00008  -0.00008   0.42399   0.00042   0.00042
  -0.00114   0.00296  -0.00008   0.83318  -0.00008   0.00042   0.42399   0.00042
  -0.00114   0.00296  -0.00008  -0.00008   0.83318   0.00042   0.00042   0.42399
   max. value=  4.98E+00, min. value=  1.38E-05
 Atom #  4 - Spin component 2
   0.60451  -1.72476  -0.00018  -0.00018  -0.00018   0.00113   0.00113   0.00113
  -1.72476   4.98101   0.00044   0.00044   0.00044  -0.00293  -0.00293  -0.00293
  -0.00018   0.00044  -0.28413   0.00001   0.00001   0.83391  -0.00007  -0.00007
  -0.00018   0.00044   0.00001  -0.28413   0.00001  -0.00007   0.83391  -0.00007
  -0.00018   0.00044   0.00001   0.00001  -0.28413  -0.00007  -0.00007   0.83391
   0.00113  -0.00293   0.83391  -0.00007  -0.00007   0.42026   0.00040   0.00040
   0.00113  -0.00293  -0.00007   0.83391  -0.00007   0.00040   0.42026   0.00040
   0.00113  -0.00293  -0.00007  -0.00007   0.83391   0.00040   0.00040   0.42026
   max. value=  4.98E+00, min. value=  1.31E-05
 
 
 Augmentation waves occupancies Rhoij:
 Atom #  1 - Spin component 1
   1.00085   0.00356   0.00000   0.00000   0.00000   0.00000   0.00000   0.00000   0.00000   0.00000   0.00000   0.00000   0.00000  -0.00003  -0.00003   0.00000  -0.00003   0.00000
   0.00356   0.29748   0.00000   0.00000   0.00000   0.00000   0.00000   0.00000   0.00003   0.00003   0.00000   0.00003   0.00000  -0.00004  -0.00004   0.00000  -0.00004   0.00000
   0.00000   0.00000   1.00393   0.00000   0.00000   0.00734  -0.00001  -0.00001   0.00000   0.00000   0.00000   0.00000   0.00000   0.00000   0.00000   0.00000   0.00000   0.00000
   0.00000   0.00000   0.00000   1.00393   0.00000  -0.00001   0.00734  -0.00001   0.00000   0.00000   0.00000   0.00000   0.00000   0.00000   0.00000   0.00000   0.00000   0.00000
   0.00000   0.00000   0.00000   0.00000   1.00393  -0.00001  -0.00001   0.00734   0.00000   0.00000   0.00000   0.00000   0.00000   0.00000   0.00000   0.00000   0.00000   0.00000
   0.00000   0.00000   0.00734  -0.00001  -0.00001   0.00682   0.00000   0.00000   0.00000   0.00000   0.00000   0.00000   0.00000   0.00000   0.00000   0.00000   0.00000   0.00000
   0.00000   0.00000  -0.00001   0.00734  -0.00001   0.00000   0.00682   0.00000   0.00000   0.00000   0.00000   0.00000   0.00000   0.00000   0.00000   0.00000   0.00000   0.00000
   0.00000   0.00000  -0.00001  -0.00001   0.00734   0.00000   0.00000   0.00682   0.00000   0.00000   0.00000   0.00000   0.00000   0.00000   0.00000   0.00000   0.00000   0.00000
   0.00000   0.00003   0.00000   0.00000   0.00000   0.00000   0.00000   0.00000   0.99040   0.00005  -0.00053   0.00005   0.00000   0.01309  -0.00003   0.00010  -0.00003   0.00000
   0.00000   0.00003   0.00000   0.00000   0.00000   0.00000   0.00000   0.00000   0.00005   0.99040   0.00026   0.00005  -0.00046  -0.00003   0.01309  -0.00005  -0.00003   0.00009
   0.00000   0.00000   0.00000   0.00000   0.00000   0.00000   0.00000   0.00000  -0.00053   0.00026   0.97948   0.00026   0.00000   0.00009  -0.00004  -0.00103  -0.00004   0.00000
   0.00000   0.00003   0.00000   0.00000   0.00000   0.00000   0.00000   0.00000   0.00005   0.00005   0.00026   0.99040   0.00046  -0.00003  -0.00003  -0.00005   0.01309  -0.00009
   0.00000   0.00000   0.00000   0.00000   0.00000   0.00000   0.00000   0.00000   0.00000  -0.00046   0.00000   0.00046   0.97948   0.00000   0.00008   0.00000  -0.00008  -0.00103
  -0.00003  -0.00004   0.00000   0.00000   0.00000   0.00000   0.00000   0.00000   0.01309  -0.00003   0.00009  -0.00003   0.00000   0.00128  -0.00000  -0.00000  -0.00000   0.00000
  -0.00003  -0.00004   0.00000   0.00000   0.00000   0.00000   0.00000   0.00000  -0.00003   0.01309  -0.00004  -0.00003   0.00008  -0.00000   0.00128   0.00000  -0.00000  -0.00000
   0.00000   0.00000   0.00000   0.00000   0.00000   0.00000   0.00000   0.00000   0.00010  -0.00005  -0.00103  -0.00005   0.00000  -0.00000   0.00000   0.00419   0.00000   0.00000
  -0.00003  -0.00004   0.00000   0.00000   0.00000   0.00000   0.00000   0.00000  -0.00003  -0.00003  -0.00004   0.01309  -0.00008  -0.00000  -0.00000   0.00000   0.00128   0.00000
   0.00000   0.00000   0.00000   0.00000   0.00000   0.00000   0.00000   0.00000   0.00000   0.00009   0.00000  -0.00009  -0.00103   0.00000  -0.00000   0.00000   0.00000   0.00419
   max. value=  1.00E+00, min. value=  0.00E+00
 Atom #  1 - Spin component 2
   1.00103   0.00752   0.00000   0.00000   0.00000   0.00000   0.00000   0.00000  -0.00000  -0.00000   0.00000  -0.00000   0.00000  -0.00001  -0.00001   0.00000  -0.00001   0.00000
   0.00752   0.30893   0.00000   0.00000   0.00000   0.00000   0.00000   0.00000  -0.00017  -0.00017   0.00000  -0.00017   0.00000   0.00005   0.00005   0.00000   0.00005   0.00000
   0.00000   0.00000   1.00346  -0.00000  -0.00000   0.00944  -0.00000  -0.00000   0.00000   0.00000   0.00000   0.00000   0.00000   0.00000   0.00000   0.00000   0.00000   0.00000
   0.00000   0.00000  -0.00000   1.00346  -0.00000  -0.00000   0.00944  -0.00000   0.00000   0.00000   0.00000   0.00000   0.00000   0.00000   0.00000   0.00000   0.00000   0.00000
   0.00000   0.00000  -0.00000  -0.00000   1.00346  -0.00000  -0.00000   0.00944   0.00000   0.00000   0.00000   0.00000   0.00000   0.00000   0.00000   0.00000   0.00000   0.00000
   0.00000   0.00000   0.00944  -0.00000  -0.00000   0.00719  -0.00001  -0.00001   0.00000   0.00000   0.00000   0.00000   0.00000   0.00000   0.00000   0.00000   0.00000   0.00000
   0.00000   0.00000  -0.00000   0.00944  -0.00000  -0.00001   0.00719  -0.00001   0.00000   0.00000   0.00000   0.00000   0.00000   0.00000   0.00000   0.00000   0.00000   0.00000
   0.00000   0.00000  -0.00000  -0.00000   0.00944  -0.00001  -0.00001   0.00719   0.00000   0.00000   0.00000   0.00000   0.00000   0.00000   0.00000   0.00000   0.00000   0.00000
  -0.00000  -0.00017   0.00000   0.00000   0.00000   0.00000   0.00000   0.00000   0.97279   0.00024   0.00315   0.00024   0.00000   0.02583  -0.00002  -0.00009  -0.00002   0.00000
  -0.00000  -0.00017   0.00000   0.00000   0.00000   0.00000   0.00000   0.00000   0.00024   0.97279  -0.00157   0.00024   0.00272  -0.00002   0.02583   0.00005  -0.00002  -0.00008
   0.00000   0.00000   0.00000   0.00000   0.00000   0.00000   0.00000   0.00000   0.00315  -0.00157   0.26746  -0.00157   0.00000  -0.00015   0.00007   0.02718   0.00007   0.00000
  -0.00000  -0.00017   0.00000   0.00000   0.00000   0.00000   0.00000   0.00000   0.00024   0.00024  -0.00157   0.97279  -0.00272  -0.00002  -0.00002   0.00005   0.02583   0.00008
   0.00000   0.00000   0.00000   0.00000   0.00000   0.00000   0.00000   0.00000   0.00000   0.00272   0.00000  -0.00272   0.26746   0.00000  -0.00013   0.00000   0.00013   0.02718
  -0.00001   0.00005   0.00000   0.00000   0.00000   0.00000   0.00000   0.00000   0.02583  -0.00002  -0.00015  -0.00002   0.00000   0.00174  -0.00000   0.00001  -0.00000   0.00000
  -0.00001   0.00005   0.00000   0.00000   0.00000   0.00000   0.00000   0.00000  -0.00002   0.02583   0.00007  -0.00002  -0.00013  -0.00000   0.00174  -0.00000  -0.00000   0.00000
   0.00000   0.00000   0.00000   0.00000   0.00000   0.00000   0.00000   0.00000  -0.00009   0.00005   0.02718   0.00005   0.00000   0.00001  -0.00000   0.00398  -0.00000   0.00000
  -0.00001   0.00005   0.00000   0.00000   0.00000   0.00000   0.00000   0.00000  -0.00002  -0.00002   0.00007   0.02583   0.00013  -0.00000  -0.00000  -0.00000   0.00174  -0.00000
   0.00000   0.00000   0.00000   0.00000   0.00000   0.00000   0.00000   0.00000   0.00000  -0.00008   0.00000   0.00008   0.02718   0.00000   0.00000   0.00000  -0.00000   0.00398
   max. value=  1.00E+00, min. value=  0.00E+00
 Atom #  2 - Spin component 1
   1.00104   0.00761   0.00000   0.00000   0.00000   0.00000   0.00000   0.00000  -0.00000  -0.00000   0.00000  -0.00000   0.00000  -0.00001  -0.00001   0.00000  -0.00001   0.00000
   0.00761   0.30770   0.00000   0.00000   0.00000   0.00000   0.00000   0.00000  -0.00017  -0.00017   0.00000  -0.00017   0.00000   0.00006   0.00006   0.00000   0.00006   0.00000
   0.00000   0.00000   1.00346  -0.00000  -0.00000   0.00948  -0.00000  -0.00000   0.00000   0.00000   0.00000   0.00000   0.00000   0.00000   0.00000   0.00000   0.00000   0.00000
   0.00000   0.00000  -0.00000   1.00346  -0.00000  -0.00000   0.00948  -0.00000   0.00000   0.00000   0.00000   0.00000   0.00000   0.00000   0.00000   0.00000   0.00000   0.00000
   0.00000   0.00000  -0.00000  -0.00000   1.00346  -0.00000  -0.00000   0.00948   0.00000   0.00000   0.00000   0.00000   0.00000   0.00000   0.00000   0.00000   0.00000   0.00000
   0.00000   0.00000   0.00948  -0.00000  -0.00000   0.00717  -0.00001  -0.00001   0.00000   0.00000   0.00000   0.00000   0.00000   0.00000   0.00000   0.00000   0.00000   0.00000
   0.00000   0.00000  -0.00000   0.00948  -0.00000  -0.00001   0.00717  -0.00001   0.00000   0.00000   0.00000   0.00000   0.00000   0.00000   0.00000   0.00000   0.00000   0.00000
   0.00000   0.00000  -0.00000  -0.00000   0.00948  -0.00001  -0.00001   0.00717   0.00000   0.00000   0.00000   0.00000   0.00000   0.00000   0.00000   0.00000   0.00000   0.00000
  -0.00000  -0.00017   0.00000   0.00000   0.00000   0.00000   0.00000   0.00000   0.97478   0.00023   0.00331   0.00023   0.00000   0.02620  -0.00002  -0.00010  -0.00002   0.00000
  -0.00000  -0.00017   0.00000   0.00000   0.00000   0.00000   0.00000   0.00000   0.00023   0.97478  -0.00165   0.00023   0.00286  -0.00002   0.02620   0.00005  -0.00002  -0.00008
   0.00000   0.00000   0.00000   0.00000   0.00000   0.00000   0.00000   0.00000   0.00331  -0.00165   0.27333  -0.00165   0.00000  -0.00016   0.00008   0.02766   0.00008   0.00000
  -0.00000  -0.00017   0.00000   0.00000   0.00000   0.00000   0.00000   0.00000   0.00023   0.00023  -0.00165   0.97478  -0.00286  -0.00002  -0.00002   0.00005   0.02620   0.00008
   0.00000   0.00000   0.00000   0.00000   0.00000   0.00000   0.00000   0.00000   0.00000   0.00286   0.00000  -0.00286   0.27333   0.00000  -0.00014   0.00000   0.00014   0.02766
  -0.00001   0.00006   0.00000   0.00000   0.00000   0.00000   0.00000   0.00000   0.02620  -0.00002  -0.00016  -0.00002   0.00000   0.00176  -0.00000   0.00001  -0.00000   0.00000
  -0.00001   0.00006   0.00000   0.00000   0.00000   0.00000   0.00000   0.00000  -0.00002   0.02620   0.00008  -0.00002  -0.00014  -0.00000   0.00176  -0.00000  -0.00000   0.00000
   0.00000   0.00000   0.00000   0.00000   0.00000   0.00000   0.00000   0.00000  -0.00010   0.00005   0.02766   0.00005   0.00000   0.00001  -0.00000   0.00399  -0.00000   0.00000
  -0.00001   0.00006   0.00000   0.00000   0.00000   0.00000   0.00000   0.00000  -0.00002  -0.00002   0.00008   0.02620   0.00014  -0.00000  -0.00000  -0.00000   0.00176  -0.00000
   0.00000   0.00000   0.00000   0.00000   0.00000   0.00000   0.00000   0.00000   0.00000  -0.00008   0.00000   0.00008   0.02766   0.00000   0.00000   0.00000  -0.00000   0.00399
   max. value=  1.00E+00, min. value=  0.00E+00
 Atom #  2 - Spin component 2
   1.00086   0.00366   0.00000   0.00000   0.00000   0.00000   0.00000   0.00000   0.00001   0.00001   0.00000   0.00001   0.00000  -0.00003  -0.00003   0.00000  -0.00003   0.00000
   0.00366   0.29646   0.00000   0.00000   0.00000   0.00000   0.00000   0.00000   0.00006   0.00006   0.00000   0.00006   0.00000  -0.00002  -0.00002   0.00000  -0.00002   0.00000
   0.00000   0.00000   1.00391   0.00000   0.00000   0.00740  -0.00001  -0.00001   0.00000   0.00000   0.00000   0.00000   0.00000   0.00000   0.00000   0.00000   0.00000   0.00000
   0.00000   0.00000   0.00000   1.00391   0.00000  -0.00001   0.00740  -0.00001   0.00000   0.00000   0.00000   0.00000   0.00000   0.00000   0.00000   0.00000   0.00000   0.00000
   0.00000   0.00000   0.00000   0.00000   1.00391  -0.00001  -0.00001   0.00740   0.00000   0.00000   0.00000   0.00000   0.00000   0.00000   0.00000   0.00000   0.00000   0.00000
   0.00000   0.00000   0.00740  -0.00001  -0.00001   0.00681   0.00001   0.00001   0.00000   0.00000   0.00000   0.00000   0.00000   0.00000   0.00000   0.00000   0.00000   0.00000
   0.00000   0.00000  -0.00001   0.00740  -0.00001   0.00001   0.00681   0.00001   0.00000   0.00000   0.00000   0.00000   0.00000   0.00000   0.00000   0.00000   0.00000   0.00000
   0.00000   0.00000  -0.00001  -0.00001   0.00740   0.00001   0.00001   0.00681   0.00000   0.00000   0.00000   0.00000   0.00000   0.00000   0.00000   0.00000   0.00000   0.00000
   0.00001   0.00006   0.00000   0.00000   0.00000   0.00000   0.00000   0.00000   0.98791   0.00005  -0.00056   0.00005   0.00000   0.01310  -0.00003   0.00010  -0.00003   0.00000
   0.00001   0.00006   0.00000   0.00000   0.00000   0.00000   0.00000   0.00000   0.00005   0.98791   0.00028   0.00005  -0.00049  -0.00003   0.01310  -0.00005  -0.00003   0.00009
   0.00000   0.00000   0.00000   0.00000   0.00000   0.00000   0.00000   0.00000  -0.00056   0.00028   0.97624   0.00028   0.00000   0.00009  -0.00004  -0.00120  -0.00004   0.00000
   0.00001   0.00006   0.00000   0.00000   0.00000   0.00000   0.00000   0.00000   0.00005   0.00005   0.00028   0.98791   0.00049  -0.00003  -0.00003  -0.00005   0.01310  -0.00009
   0.00000   0.00000   0.00000   0.00000   0.00000   0.00000   0.00000   0.00000   0.00000  -0.00049   0.00000   0.00049   0.97624   0.00000   0.00008   0.00000  -0.00008  -0.00120
  -0.00003  -0.00002   0.00000   0.00000   0.00000   0.00000   0.00000   0.00000   0.01310  -0.00003   0.00009  -0.00003   0.00000   0.00128   0.00000  -0.00000   0.00000   0.00000
  -0.00003  -0.00002   0.00000   0.00000   0.00000   0.00000   0.00000   0.00000  -0.00003   0.01310  -0.00004  -0.00003   0.00008   0.00000   0.00128   0.00000   0.00000  -0.00000
   0.00000   0.00000   0.00000   0.00000   0.00000   0.00000   0.00000   0.00000   0.00010  -0.00005  -0.00120  -0.00005   0.00000  -0.00000   0.00000   0.00418   0.00000   0.00000
  -0.00003  -0.00002   0.00000   0.00000   0.00000   0.00000   0.00000   0.00000  -0.00003  -0.00003  -0.00004   0.01310  -0.00008   0.00000   0.00000   0.00000   0.00128   0.00000
   0.00000   0.00000   0.00000   0.00000   0.00000   0.00000   0.00000   0.00000   0.00000   0.00009   0.00000  -0.00009  -0.00120   0.00000  -0.00000   0.00000   0.00000   0.00418
   max. value=  1.00E+00, min. value=  0.00E+00
 Atom #  3 - Spin component 1
   0.98426   0.01226   0.01055   0.01055   0.01055  -0.00040  -0.00040  -0.00040
   0.01226   0.00072  -0.00237  -0.00237  -0.00237   0.00001   0.00001   0.00001
   0.01055  -0.00237   0.85971   0.00101   0.00101   0.01530  -0.00002  -0.00002
   0.01055  -0.00237   0.00101   0.85971   0.00101  -0.00002   0.01530  -0.00002
   0.01055  -0.00237   0.00101   0.00101   0.85971  -0.00002  -0.00002   0.01530
  -0.00040   0.00001   0.01530  -0.00002  -0.00002   0.00037   0.00000   0.00000
  -0.00040   0.00001  -0.00002   0.01530  -0.00002   0.00000   0.00037   0.00000
  -0.00040   0.00001  -0.00002  -0.00002   0.01530   0.00000   0.00000   0.00037
   max. value=  9.84E-01, min. value=  3.85E-07
 Atom #  3 - Spin component 2
   0.98439   0.01220  -0.01038  -0.01038  -0.01038   0.00042   0.00042   0.00042
   0.01220   0.00072   0.00238   0.00238   0.00238  -0.00001  -0.00001  -0.00001
  -0.01038   0.00238   0.86219   0.00103   0.00103   0.01528  -0.00002  -0.00002
  -0.01038   0.00238   0.00103   0.86219   0.00103  -0.00002   0.01528  -0.00002
  -0.01038   0.00238   0.00103   0.00103   0.86219  -0.00002  -0.00002   0.01528
   0.00042  -0.00001   0.01528  -0.00002  -0.00002   0.00037   0.00000   0.00000
   0.00042  -0.00001  -0.00002   0.01528  -0.00002   0.00000   0.00037   0.00000
   0.00042  -0.00001  -0.00002  -0.00002   0.01528   0.00000   0.00000   0.00037
   max. value=  9.84E-01, min. value=  4.23E-07
 Atom #  4 - Spin component 1
   0.98426   0.01226  -0.01055  -0.01055  -0.01055   0.00040   0.00040   0.00040
   0.01226   0.00072   0.00237   0.00237   0.00237  -0.00001  -0.00001  -0.00001
  -0.01055   0.00237   0.85971   0.00101   0.00101   0.01530  -0.00002  -0.00002
  -0.01055   0.00237   0.00101   0.85971   0.00101  -0.00002   0.01530  -0.00002
  -0.01055   0.00237   0.00101   0.00101   0.85971  -0.00002  -0.00002   0.01530
   0.00040  -0.00001   0.01530  -0.00002  -0.00002   0.00037   0.00000   0.00000
   0.00040  -0.00001  -0.00002   0.01530  -0.00002   0.00000   0.00037   0.00000
   0.00040  -0.00001  -0.00002  -0.00002   0.01530   0.00000   0.00000   0.00037
   max. value=  9.84E-01, min. value=  3.85E-07
 Atom #  4 - Spin component 2
   0.98439   0.01220   0.01038   0.01038   0.01038  -0.00042  -0.00042  -0.00042
   0.01220   0.00072  -0.00238  -0.00238  -0.00238   0.00001   0.00001   0.00001
   0.01038  -0.00238   0.86219   0.00103   0.00103   0.01528  -0.00002  -0.00002
   0.01038  -0.00238   0.00103   0.86219   0.00103  -0.00002   0.01528  -0.00002
   0.01038  -0.00238   0.00103   0.00103   0.86219  -0.00002  -0.00002   0.01528
  -0.00042   0.00001   0.01528  -0.00002  -0.00002   0.00037   0.00000   0.00000
  -0.00042   0.00001  -0.00002   0.01528  -0.00002   0.00000   0.00037   0.00000
  -0.00042   0.00001  -0.00002  -0.00002   0.01528   0.00000   0.00000   0.00037
   max. value=  9.84E-01, min. value=  4.23E-07
 
 "PAW+U" part of augmentation waves occupancies Rhoij:
 Atom #  1 - L=2 ONLY - Spin component 1
   0.99040   0.00005  -0.00053   0.00005   0.00000   0.01309  -0.00003   0.00010  -0.00003   0.00000
   0.00005   0.99040   0.00026   0.00005  -0.00046  -0.00003   0.01309  -0.00005  -0.00003   0.00009
  -0.00053   0.00026   0.97948   0.00026   0.00000   0.00009  -0.00004  -0.00103  -0.00004   0.00000
   0.00005   0.00005   0.00026   0.99040   0.00046  -0.00003  -0.00003  -0.00005   0.01309  -0.00009
   0.00000  -0.00046   0.00000   0.00046   0.97948   0.00000   0.00008   0.00000  -0.00008  -0.00103
   0.01309  -0.00003   0.00009  -0.00003   0.00000   0.00128  -0.00000  -0.00000  -0.00000   0.00000
  -0.00003   0.01309  -0.00004  -0.00003   0.00008  -0.00000   0.00128   0.00000  -0.00000  -0.00000
   0.00010  -0.00005  -0.00103  -0.00005   0.00000  -0.00000   0.00000   0.00419   0.00000   0.00000
  -0.00003  -0.00003  -0.00004   0.01309  -0.00008  -0.00000  -0.00000   0.00000   0.00128   0.00000
   0.00000   0.00009   0.00000  -0.00009  -0.00103   0.00000  -0.00000   0.00000   0.00000   0.00419
 Atom #  1 - L=2 ONLY - Spin component 2
   0.97279   0.00024   0.00315   0.00024   0.00000   0.02583  -0.00002  -0.00009  -0.00002   0.00000
   0.00024   0.97279  -0.00157   0.00024   0.00272  -0.00002   0.02583   0.00005  -0.00002  -0.00008
   0.00315  -0.00157   0.26746  -0.00157   0.00000  -0.00015   0.00007   0.02718   0.00007   0.00000
   0.00024   0.00024  -0.00157   0.97279  -0.00272  -0.00002  -0.00002   0.00005   0.02583   0.00008
   0.00000   0.00272   0.00000  -0.00272   0.26746   0.00000  -0.00013   0.00000   0.00013   0.02718
   0.02583  -0.00002  -0.00015  -0.00002   0.00000   0.00174  -0.00000   0.00001  -0.00000   0.00000
  -0.00002   0.02583   0.00007  -0.00002  -0.00013  -0.00000   0.00174  -0.00000  -0.00000   0.00000
  -0.00009   0.00005   0.02718   0.00005   0.00000   0.00001  -0.00000   0.00398  -0.00000   0.00000
  -0.00002  -0.00002   0.00007   0.02583   0.00013  -0.00000  -0.00000  -0.00000   0.00174  -0.00000
   0.00000  -0.00008   0.00000   0.00008   0.02718   0.00000   0.00000   0.00000  -0.00000   0.00398
 Atom #  2 - L=2 ONLY - Spin component 1
   0.97478   0.00023   0.00331   0.00023   0.00000   0.02620  -0.00002  -0.00010  -0.00002   0.00000
   0.00023   0.97478  -0.00165   0.00023   0.00286  -0.00002   0.02620   0.00005  -0.00002  -0.00008
   0.00331  -0.00165   0.27333  -0.00165   0.00000  -0.00016   0.00008   0.02766   0.00008   0.00000
   0.00023   0.00023  -0.00165   0.97478  -0.00286  -0.00002  -0.00002   0.00005   0.02620   0.00008
   0.00000   0.00286   0.00000  -0.00286   0.27333   0.00000  -0.00014   0.00000   0.00014   0.02766
   0.02620  -0.00002  -0.00016  -0.00002   0.00000   0.00176  -0.00000   0.00001  -0.00000   0.00000
  -0.00002   0.02620   0.00008  -0.00002  -0.00014  -0.00000   0.00176  -0.00000  -0.00000   0.00000
  -0.00010   0.00005   0.02766   0.00005   0.00000   0.00001  -0.00000   0.00399  -0.00000   0.00000
  -0.00002  -0.00002   0.00008   0.02620   0.00014  -0.00000  -0.00000  -0.00000   0.00176  -0.00000
   0.00000  -0.00008   0.00000   0.00008   0.02766   0.00000   0.00000   0.00000  -0.00000   0.00399
 Atom #  2 - L=2 ONLY - Spin component 2
   0.98791   0.00005  -0.00056   0.00005   0.00000   0.01310  -0.00003   0.00010  -0.00003   0.00000
   0.00005   0.98791   0.00028   0.00005  -0.00049  -0.00003   0.01310  -0.00005  -0.00003   0.00009
  -0.00056   0.00028   0.97624   0.00028   0.00000   0.00009  -0.00004  -0.00120  -0.00004   0.00000
   0.00005   0.00005   0.00028   0.98791   0.00049  -0.00003  -0.00003  -0.00005   0.01310  -0.00009
   0.00000  -0.00049   0.00000   0.00049   0.97624   0.00000   0.00008   0.00000  -0.00008  -0.00120
   0.01310  -0.00003   0.00009  -0.00003   0.00000   0.00128   0.00000  -0.00000   0.00000   0.00000
  -0.00003   0.01310  -0.00004  -0.00003   0.00008   0.00000   0.00128   0.00000   0.00000  -0.00000
   0.00010  -0.00005  -0.00120  -0.00005   0.00000  -0.00000   0.00000   0.00418   0.00000   0.00000
  -0.00003  -0.00003  -0.00004   0.01310  -0.00008   0.00000   0.00000   0.00000   0.00128   0.00000
   0.00000   0.00009   0.00000  -0.00009  -0.00120   0.00000  -0.00000   0.00000   0.00000   0.00418
 Atom #  3 - L=1 ONLY - Spin component 1
   0.85971   0.00101   0.00101   0.01530  -0.00002  -0.00002
   0.00101   0.85971   0.00101  -0.00002   0.01530  -0.00002
   0.00101   0.00101   0.85971  -0.00002  -0.00002   0.01530
   0.01530  -0.00002  -0.00002   0.00037   0.00000   0.00000
  -0.00002   0.01530  -0.00002   0.00000   0.00037   0.00000
  -0.00002  -0.00002   0.01530   0.00000   0.00000   0.00037
 Atom #  3 - L=1 ONLY - Spin component 2
   0.86219   0.00103   0.00103   0.01528  -0.00002  -0.00002
   0.00103   0.86219   0.00103  -0.00002   0.01528  -0.00002
   0.00103   0.00103   0.86219  -0.00002  -0.00002   0.01528
   0.01528  -0.00002  -0.00002   0.00037   0.00000   0.00000
  -0.00002   0.01528  -0.00002   0.00000   0.00037   0.00000
  -0.00002  -0.00002   0.01528   0.00000   0.00000   0.00037
 Atom #  4 - L=1 ONLY - Spin component 1
   0.85971   0.00101   0.00101   0.01530  -0.00002  -0.00002
   0.00101   0.85971   0.00101  -0.00002   0.01530  -0.00002
   0.00101   0.00101   0.85971  -0.00002  -0.00002   0.01530
   0.01530  -0.00002  -0.00002   0.00037   0.00000   0.00000
  -0.00002   0.01530  -0.00002   0.00000   0.00037   0.00000
  -0.00002  -0.00002   0.01530   0.00000   0.00000   0.00037
 Atom #  4 - L=1 ONLY - Spin component 2
   0.86219   0.00103   0.00103   0.01528  -0.00002  -0.00002
   0.00103   0.86219   0.00103  -0.00002   0.01528  -0.00002
   0.00103   0.00103   0.86219  -0.00002  -0.00002   0.01528
   0.01528  -0.00002  -0.00002   0.00037   0.00000   0.00000
  -0.00002   0.01528  -0.00002   0.00000   0.00037   0.00000
  -0.00002  -0.00002   0.01528   0.00000   0.00000   0.00037
 
 ---------- DFT+U DATA --------------------------------------------------- 
 
 ====== For Atom     1, occupations for correlated orbitals. lpawu =   2
 
 Atom   1. Occ. for lpawu and for spin  1 =   4.44858
 Atom   1. Occ. for lpawu and for spin  2 =   3.08214
 => On atom   1,  local Mag. for lpawu is       -1.366440
 
 == Occupation matrix for correlated orbitals:
 
 Occupation matrix for spin  1
     0.89182    0.00006   -0.00051    0.00006    0.00000
     0.00006    0.89182    0.00025    0.00006   -0.00044
    -0.00051    0.00025    0.88656    0.00025    0.00000
     0.00006    0.00006    0.00025    0.89182    0.00044
     0.00000   -0.00044    0.00000    0.00044    0.88656
 
 
 Occupation matrix for spin  2
     0.87181    0.00022    0.00288    0.00022    0.00000
     0.00022    0.87181   -0.00144    0.00022    0.00250
     0.00288   -0.00144    0.23335   -0.00144    0.00000
     0.00022    0.00022   -0.00144    0.87181   -0.00250
     0.00000    0.00250    0.00000   -0.00250    0.23335
 
 
 ====== For Atom     2, occupations for correlated orbitals. lpawu =   2
 
 Atom   2. Occ. for lpawu and for spin  1 =   3.09750
 Atom   2. Occ. for lpawu and for spin  2 =   4.43605
 => On atom   2,  local Mag. for lpawu is        1.338552
 
 == Occupation matrix for correlated orbitals:
 
 Occupation matrix for spin  1
     0.87349    0.00022    0.00303    0.00022    0.00000
     0.00022    0.87349   -0.00152    0.00022    0.00263
     0.00303   -0.00152    0.23851   -0.00152    0.00000
     0.00022    0.00022   -0.00152    0.87349   -0.00263
     0.00000    0.00263    0.00000   -0.00263    0.23851
 
 
 Occupation matrix for spin  2
     0.88956    0.00005   -0.00054    0.00005    0.00000
     0.00005    0.88956    0.00027    0.00005   -0.00047
    -0.00054    0.00027    0.88368    0.00027    0.00000
     0.00005    0.00005    0.00027    0.88956    0.00047
     0.00000   -0.00047    0.00000    0.00047    0.88368
 
 
 ====== For Atom     3, occupations for correlated orbitals. lpawu =   1
 
 Atom   3. Occ. for lpawu and for spin  1 =   1.53631
 Atom   3. Occ. for lpawu and for spin  2 =   1.54160
 => On atom   3,  local Mag. for lpawu is        0.005291
 
 == Occupation matrix for correlated orbitals:
 
 Occupation matrix for spin  1
     0.51210    0.00075    0.00075
     0.00075    0.51210    0.00075
     0.00075    0.00075    0.51210
 
 
 Occupation matrix for spin  2
     0.51387    0.00077    0.00077
     0.00077    0.51387    0.00077
     0.00077    0.00077    0.51387
 
 
 ====== For Atom     4, occupations for correlated orbitals. lpawu =   1
 
 Atom   4. Occ. for lpawu and for spin  1 =   1.53631
 Atom   4. Occ. for lpawu and for spin  2 =   1.54160
 => On atom   4,  local Mag. for lpawu is        0.005291
 
 == Occupation matrix for correlated orbitals:
 
 Occupation matrix for spin  1
     0.51210    0.00075    0.00075
     0.00075    0.51210    0.00075
     0.00075    0.00075    0.51210
 
 
 Occupation matrix for spin  2
     0.51387    0.00077    0.00077
     0.00077    0.51387    0.00077
     0.00077    0.00077    0.51387
 
 
 
 
 ---------- calculate U, (J) start ---------- 
 
 All pawujat  ok and equal to   1
 macro_uj=4 and nspden=2, Hunds J determination -- L. MacEnulty August 2021
 
 
*********************************************************************
************************  Linear Response J  ************************
 
 Info printed for perturbed atom:    1
 
  Perturbations         Magnetizations
 --------------- -----------------------------
    beta  [eV]     Unscreened      Screened
 --------------- -----------------------------
   0.0000000000   1.3101482092   1.3101482092
  -0.1500000000   1.3322568566   1.3664401054
 
                    Scalar response functions:
                    Chi0 [eV^-1]:     -0.32754
                    Chi [eV^-1]:      -0.37528
 
 The scalar J from the two-point regression scheme is   0.38842 eV.
*********************************************************************
*********************************************************************
Note: For more reliable linear regressions of the response
matrices, it is advised that you have more than two points.
See the LRUJ protocol for more information.
 
 
 URES      ii    nat       r_max    U(J)[eV]   U_ASA[eV]   U_inf[eV]
 URES       1      1     0.00000     0.09711     0.07814     0.07559
 URES       2      8    11.14400     0.34047     0.27399     0.26504
 URES       3     27    12.45940     0.37405     0.30101     0.29118
 URES       4     64    22.28800     0.38235     0.30769     0.29764
 URES       5    125    24.28780     0.38531     0.31008     0.29995
 URES       6    216    33.43200     0.38662     0.31113     0.30097
 
 ---------- calculate U, (J) end -------------- 
 
================================================================================
 
 ----iterations are completed or convergence reached----
 
 Mean square residual over all n,k,spin=   78.631E-15; max=  11.302E-11
   0.0833  0.0833  0.0833    1  1.13017E-10 kpt; spin; max resid(k); each band:
  1.98E-16 1.40E-16 1.20E-17 5.28E-18 5.28E-18 4.71E-18 1.56E-18 1.56E-18
  5.66E-17 5.17E-17 2.55E-16 3.76E-16 3.67E-16 3.14E-16 2.32E-16 2.19E-16
  7.91E-17 7.92E-17 2.12E-16 2.82E-16 2.84E-16 2.73E-17 2.81E-17 6.23E-16
  3.87E-14 1.13E-10
   0.2500  0.0833  0.0833    1  3.94256E-16 kpt; spin; max resid(k); each band:
  2.24E-16 1.46E-16 1.69E-17 9.11E-18 7.19E-18 6.43E-18 3.13E-18 2.20E-18
  5.68E-17 5.37E-17 2.57E-16 2.61E-16 3.14E-16 2.77E-16 2.99E-16 2.27E-16
  1.12E-16 1.17E-16 2.24E-16 2.18E-16 3.94E-16 9.46E-17 5.31E-17 1.65E-16
  9.11E-17 1.72E-16
   0.4167  0.0833  0.0833    1  4.05950E-16 kpt; spin; max resid(k); each band:
  2.19E-16 1.54E-16 1.73E-17 2.12E-17 1.13E-17 3.64E-17 3.69E-17 3.16E-18
  5.82E-17 5.40E-17 1.56E-16 2.49E-16 2.23E-16 4.06E-16 1.80E-16 2.32E-16
  1.28E-16 2.24E-17 1.74E-16 2.80E-16 2.51E-16 1.05E-16 7.78E-17 1.53E-16
  1.24E-16 1.35E-16
  -0.4167  0.0833  0.0833    1  3.57686E-16 kpt; spin; max resid(k); each band:
  2.08E-16 1.56E-16 1.59E-17 2.85E-17 1.36E-17 6.56E-18 5.32E-18 3.63E-18
  5.89E-17 4.95E-17 1.41E-16 1.40E-16 2.72E-16 1.77E-16 3.58E-16 1.44E-16
  1.16E-16 1.46E-17 2.14E-16 1.57E-16 2.88E-16 3.30E-16 2.37E-17 1.34E-16
  1.04E-16 1.20E-16
  -0.2500  0.0833  0.0833    1  4.25060E-16 kpt; spin; max resid(k); each band:
  2.15E-16 1.53E-16 1.82E-17 1.88E-17 1.22E-17 4.18E-17 4.21E-17 3.27E-18
  5.55E-17 5.56E-17 2.33E-16 2.05E-16 1.47E-16 4.25E-16 3.29E-16 2.16E-16
  1.06E-16 3.23E-17 1.53E-16 1.16E-16 2.14E-16 2.23E-16 1.29E-16 1.48E-16
  9.80E-17 1.17E-16
  -0.0833  0.0833  0.0833    1  3.20779E-16 kpt; spin; max resid(k); each band:
  2.16E-16 1.47E-16 1.90E-17 7.85E-18 8.04E-18 6.31E-18 2.18E-18 2.33E-18
  5.59E-17 5.48E-17 2.55E-16 2.56E-16 3.21E-16 3.04E-16 2.94E-16 2.97E-16
  9.39E-17 6.36E-17 2.01E-16 2.62E-16 3.07E-16 1.67E-16 8.41E-17 1.56E-16
[...]
  sigma(1 1)=  6.71859347E-04  sigma(3 2)=  1.03195840E-05
  sigma(2 2)=  6.71859347E-04  sigma(3 1)=  1.03195840E-05
  sigma(3 3)=  6.71859347E-04  sigma(2 1)=  1.03195840E-05
 
-Cartesian components of stress tensor (GPa)         [Pressure= -1.9767E+01 GPa]
- sigma(1 1)=  1.97667811E+01  sigma(3 2)=  3.03612594E-01
- sigma(2 2)=  1.97667811E+01  sigma(3 1)=  3.03612594E-01
- sigma(3 3)=  1.97667811E+01  sigma(2 1)=  3.03612594E-01
 
== END DATASET(S) ==============================================================
================================================================================
  
 -outvars: echo values of variables after computation  --------
            acell      7.8800000000E+00  7.8800000000E+00  7.8800000000E+00 Bohr
              amu      5.86900000E+01  5.86900000E+01  1.59994000E+01
         atvshift1      -0.00551   -0.00551   -0.00551   -0.00551   -0.00551
                         0.00551    0.00551    0.00551    0.00551    0.00551
                         0.00000    0.00000    0.00000    0.00000    0.00000
                         0.00000    0.00000    0.00000    0.00000    0.00000
                         0.00000    0.00000    0.00000    0.00000    0.00000
                         0.00000    0.00000    0.00000    0.00000    0.00000
                         0.00000    0.00000    0.00000    0.00000    0.00000
                         0.00000    0.00000    0.00000    0.00000    0.00000
         atvshift2      -0.00367   -0.00367   -0.00367   -0.00367   -0.00367
                         0.00367    0.00367    0.00367    0.00367    0.00367
                         0.00000    0.00000    0.00000    0.00000    0.00000
                         0.00000    0.00000    0.00000    0.00000    0.00000
                         0.00000    0.00000    0.00000    0.00000    0.00000
                         0.00000    0.00000    0.00000    0.00000    0.00000
                         0.00000    0.00000    0.00000    0.00000    0.00000
                         0.00000    0.00000    0.00000    0.00000    0.00000
         atvshift3      -0.00184   -0.00184   -0.00184   -0.00184   -0.00184
                         0.00184    0.00184    0.00184    0.00184    0.00184
                         0.00000    0.00000    0.00000    0.00000    0.00000
                         0.00000    0.00000    0.00000    0.00000    0.00000
                         0.00000    0.00000    0.00000    0.00000    0.00000
                         0.00000    0.00000    0.00000    0.00000    0.00000
                         0.00000    0.00000    0.00000    0.00000    0.00000
                         0.00000    0.00000    0.00000    0.00000    0.00000
         atvshift4       0.00184    0.00184    0.00184    0.00184    0.00184
                        -0.00184   -0.00184   -0.00184   -0.00184   -0.00184
                         0.00000    0.00000    0.00000    0.00000    0.00000
                         0.00000    0.00000    0.00000    0.00000    0.00000
                         0.00000    0.00000    0.00000    0.00000    0.00000
                         0.00000    0.00000    0.00000    0.00000    0.00000
                         0.00000    0.00000    0.00000    0.00000    0.00000
                         0.00000    0.00000    0.00000    0.00000    0.00000
         atvshift5       0.00367    0.00367    0.00367    0.00367    0.00367
                        -0.00367   -0.00367   -0.00367   -0.00367   -0.00367
                         0.00000    0.00000    0.00000    0.00000    0.00000
                         0.00000    0.00000    0.00000    0.00000    0.00000
                         0.00000    0.00000    0.00000    0.00000    0.00000
                         0.00000    0.00000    0.00000    0.00000    0.00000
                         0.00000    0.00000    0.00000    0.00000    0.00000
                         0.00000    0.00000    0.00000    0.00000    0.00000
         atvshift6       0.00551    0.00551    0.00551    0.00551    0.00551
                        -0.00551   -0.00551   -0.00551   -0.00551   -0.00551
                         0.00000    0.00000    0.00000    0.00000    0.00000
                         0.00000    0.00000    0.00000    0.00000    0.00000
                         0.00000    0.00000    0.00000    0.00000    0.00000
                         0.00000    0.00000    0.00000    0.00000    0.00000
                         0.00000    0.00000    0.00000    0.00000    0.00000
                         0.00000    0.00000    0.00000    0.00000    0.00000
          chkprim           0
      chksymbreak           0
           diemix      4.50000000E-01
        dmatpuopt           3
             ecut      2.00000000E+01 Hartree
           etotal1    -3.7392507864E+02
           etotal2    -3.7392258444E+02
           etotal3    -3.7392012387E+02
           etotal4    -3.7391531044E+02
           etotal5    -3.7391296161E+02
           etotal6    -3.7391065457E+02
            fcart1     1.0164395367E-20  6.7762635780E-21 -3.3881317890E-21
                       1.0164395367E-20  6.7762635780E-21 -3.3881317890E-21
                      -1.1977142778E-04 -1.1977142778E-04 -1.1977142778E-04
                       1.1977142778E-04  1.1977142778E-04  1.1977142778E-04
            fcart2     0.0000000000E+00  0.0000000000E+00  0.0000000000E+00
                       0.0000000000E+00  0.0000000000E+00  0.0000000000E+00
                      -8.2381310216E-05 -8.2381310216E-05 -8.2381310216E-05
                       8.2381310216E-05  8.2381310216E-05  8.2381310216E-05
            fcart3     0.0000000000E+00  0.0000000000E+00  0.0000000000E+00
                       0.0000000000E+00  0.0000000000E+00  0.0000000000E+00
                      -4.2341234569E-05 -4.2341234569E-05 -4.2341234569E-05
                       4.2341234569E-05  4.2341234569E-05  4.2341234569E-05
            fcart4     0.0000000000E+00  3.3881317890E-21 -6.7762635780E-21
                       0.0000000000E+00  3.3881317890E-21 -6.7762635780E-21
                       4.6112879335E-05  4.6112879335E-05  4.6112879335E-05
                      -4.6112879335E-05 -4.6112879335E-05 -4.6112879335E-05
            fcart5     0.0000000000E+00  6.7762635780E-21 -1.3552527156E-20
                       0.0000000000E+00  6.7762635780E-21 -1.3552527156E-20
                       9.4852673417E-05  9.4852673417E-05  9.4852673417E-05
                      -9.4852673417E-05 -9.4852673417E-05 -9.4852673417E-05
            fcart6     6.7762635780E-21 -1.3552527156E-20  6.7762635780E-21
                       6.7762635780E-21 -1.3552527156E-20  6.7762635780E-21
                       1.4678318907E-04  1.4678318907E-04  1.4678318907E-04
                      -1.4678318907E-04 -1.4678318907E-04 -1.4678318907E-04
-          fftalg         512
              ixc     -101130
           jdtset        1    2    3    4    5    6
              kpt      8.33333333E-02  8.33333333E-02  8.33333333E-02
                       2.50000000E-01  8.33333333E-02  8.33333333E-02
                       4.16666667E-01  8.33333333E-02  8.33333333E-02
                      -4.16666667E-01  8.33333333E-02  8.33333333E-02
                      -2.50000000E-01  8.33333333E-02  8.33333333E-02
                      -8.33333333E-02  8.33333333E-02  8.33333333E-02
                       2.50000000E-01  2.50000000E-01  8.33333333E-02
                       4.16666667E-01  2.50000000E-01  8.33333333E-02
                      -4.16666667E-01  2.50000000E-01  8.33333333E-02
                      -2.50000000E-01  2.50000000E-01  8.33333333E-02
                      -8.33333333E-02  2.50000000E-01  8.33333333E-02
                       4.16666667E-01  4.16666667E-01  8.33333333E-02
                      -4.16666667E-01  4.16666667E-01  8.33333333E-02
                      -2.50000000E-01  4.16666667E-01  8.33333333E-02
                      -8.33333333E-02  4.16666667E-01  8.33333333E-02
                      -4.16666667E-01 -4.16666667E-01  8.33333333E-02
                      -2.50000000E-01 -4.16666667E-01  8.33333333E-02
                      -2.50000000E-01 -2.50000000E-01  8.33333333E-02
                       2.50000000E-01  2.50000000E-01  2.50000000E-01
                       4.16666667E-01  2.50000000E-01  2.50000000E-01
                      -4.16666667E-01  2.50000000E-01  2.50000000E-01
                      -2.50000000E-01  2.50000000E-01  2.50000000E-01
                       4.16666667E-01  4.16666667E-01  2.50000000E-01
                      -4.16666667E-01  4.16666667E-01  2.50000000E-01
                      -2.50000000E-01  4.16666667E-01  2.50000000E-01
                      -4.16666667E-01 -4.16666667E-01  2.50000000E-01
                       4.16666667E-01  4.16666667E-01  4.16666667E-01
                      -4.16666667E-01  4.16666667E-01  4.16666667E-01
         kptrlatt        6    0    0      0    6    0      0    0    6
          kptrlen      3.34320086E+01
            lpawu           2       2       1
         macro_uj        4
P           mkmem           4
            natom           4
            nband          26
        natvshift        5
           ndtset           6
            ngfft          40      40      40
          ngfftdg          60      60      60
             nkpt          28
           nspden           2
           nsppol           2
             nsym          12
           ntypat           3
              occ      1.000000  1.000000  1.000000  1.000000  1.000000  1.000000
                       1.000000  1.000000  1.000000  1.000000  1.000000  1.000000
                       1.000000  1.000000  1.000000  1.000000  1.000000  1.000000
                       1.000000  1.000000  1.000000  1.000000  1.000000  1.000000
                       0.000000  0.000000
                       1.000000  1.000000  1.000000  1.000000  1.000000  1.000000
                       1.000000  1.000000  1.000000  1.000000  1.000000  1.000000
                       1.000000  1.000000  1.000000  1.000000  1.000000  1.000000
                       1.000000  1.000000  1.000000  1.000000  1.000000  1.000000
                       0.000000  0.000000
           occopt           0
-      paral_atom           0
        pawecutdg      4.00000000E+01 Hartree
        pawprtvol          -3
           pawujv1    -5.5123988097E-03 Hartree
           pawujv2    -3.6749325398E-03 Hartree
           pawujv3    -1.8374662699E-03 Hartree
           pawujv4     1.8374662699E-03 Hartree
           pawujv5     3.6749325398E-03 Hartree
           pawujv6     5.5123988097E-03 Hartree
           prtden           0
        prtebands           0
           prteig           0
           prtgsr           0
           prtvol           3
            prtwf           0
            rprim      5.0000000000E-01  5.0000000000E-01  1.0000000000E+00
                       1.0000000000E+00  5.0000000000E-01  5.0000000000E-01
                       5.0000000000E-01  1.0000000000E+00  5.0000000000E-01
           shiftk      5.00000000E-01  5.00000000E-01  5.00000000E-01
          spgroup         166
           spinat      0.0000000000E+00  0.0000000000E+00  3.0000000000E+00
                       0.0000000000E+00  0.0000000000E+00 -3.0000000000E+00
                       0.0000000000E+00  0.0000000000E+00  0.0000000000E+00
                       0.0000000000E+00  0.0000000000E+00  0.0000000000E+00
           strten1     6.4141085930E-04  6.4141085930E-04  6.4141085930E-04
                       1.1899839967E-05  1.1899839967E-05  1.1899839967E-05
           strten2     6.4602146907E-04  6.4602146907E-04  6.4602146907E-04
                       1.1672749284E-05  1.1672749284E-05  1.1672749284E-05
           strten3     6.5078625195E-04  6.5078625195E-04  6.5078625195E-04
                       1.1433170569E-05  1.1433170569E-05  1.1433170569E-05
           strten4     6.6088102977E-04  6.6088102977E-04  6.6088102977E-04
                       1.0911438932E-05  1.0911438932E-05  1.0911438932E-05
           strten5     6.6624116599E-04  6.6624116599E-04  6.6624116599E-04
                       1.0625438301E-05  1.0625438301E-05  1.0625438301E-05
           strten6     6.7185934739E-04  6.7185934739E-04  6.7185934739E-04
                       1.0319584046E-05  1.0319584046E-05  1.0319584046E-05
           symrel      1  0  0   0  1  0   0  0  1      -1  0  0   0 -1  0   0  0 -1
                       0  1  0   1  0  0   0  0  1       0 -1  0  -1  0  0   0  0 -1
                       0  0  1   1  0  0   0  1  0       0  0 -1  -1  0  0   0 -1  0
                       1  0  0   0  0  1   0  1  0      -1  0  0   0  0 -1   0 -1  0
                       0  1  0   0  0  1   1  0  0       0 -1  0   0  0 -1  -1  0  0
                       0  0  1   0  1  0   1  0  0       0  0 -1   0 -1  0  -1  0  0
           tolvrs      1.00000000E-11
            typat      1  2  3  3
          usepawu           1
           useylm           1
              wtk        0.00926    0.02778    0.02778    0.02778    0.02778    0.02778
                         0.02778    0.05556    0.05556    0.05556    0.05556    0.02778
                         0.05556    0.05556    0.05556    0.02778    0.05556    0.02778
                         0.00926    0.02778    0.02778    0.02778    0.02778    0.05556
                         0.05556    0.02778    0.00926    0.02778
           xangst      0.0000000000E+00  0.0000000000E+00  0.0000000000E+00
                       4.1699164037E+00  4.1699164037E+00  4.1699164037E+00
                       2.0849582018E+00  2.0849582018E+00  2.0849582018E+00
                       6.2548746055E+00  6.2548746055E+00  6.2548746055E+00
            xcart      0.0000000000E+00  0.0000000000E+00  0.0000000000E+00
                       7.8800000000E+00  7.8800000000E+00  7.8800000000E+00
                       3.9400000000E+00  3.9400000000E+00  3.9400000000E+00
                       1.1820000000E+01  1.1820000000E+01  1.1820000000E+01
             xred      0.0000000000E+00  0.0000000000E+00  0.0000000000E+00
                       5.0000000000E-01  5.0000000000E-01  5.0000000000E-01
                       2.5000000000E-01  2.5000000000E-01  2.5000000000E-01
                       7.5000000000E-01  7.5000000000E-01  7.5000000000E-01
            znucl       28.00000   28.00000    8.00000
 
================================================================================


- Timing analysis has been suppressed with timopt=0



================================================================================

 Suggested references for the acknowledgment of ABINIT usage.

 The users of ABINIT have little formal obligations with respect to the ABINIT group
 (those specified in the GNU General Public License, http://www.gnu.org/copyleft/gpl.txt).
 However, it is common practice in the scientific literature,
 to acknowledge the efforts of people that have made the research possible.
 In this spirit, please find below suggested citations of work written by ABINIT developers,
 corresponding to implementations inside of ABINIT that you have used in the present run.
 Note also that it will be of great value to readers of publications presenting these results,
 to read papers enabling them to understand the theoretical formalism and details
 of the ABINIT implementation.
 For information on why they are suggested, see also https://docs.abinit.org/theory/acknowledgments.
-
- [1] Gamma and beta cerium: DFT+U calculations of ground-state parameters.
- B. Amadon, F. Jollet and M. Torrent, Phys. Rev. B 77, 155104 (2008).
- Comment: DFT+U calculations, usepawu/=0. Strong suggestion to cite this paper.
- DOI and bibtex: see https://docs.abinit.org/theory/bibliography/#amadon2008a
-
- [2] Implementation of the Projector Augmented-Wave Method in the ABINIT code.
- M. Torrent, F. Jollet, F. Bottin, G. Zerah, and X. Gonze Comput. Mat. Science 42, 337, (2008).
- Comment: PAW calculations. Strong suggestion to cite this paper.
- DOI and bibtex: see https://docs.abinit.org/theory/bibliography/#torrent2008
-
- [3] Libxc: A library of exchange and correlation functionals for density functional theory.
- M.A.L. Marques, M.J.T. Oliveira, T. Burnus, Computer Physics Communications 183, 2227 (2012).
- Comment: to be cited when LibXC is used (negative value of ixc)
- Strong suggestion to cite this paper.
- DOI and bibtex: see https://docs.abinit.org/theory/bibliography/#marques2012
-
- [4] The Abinit project: Impact, environment and recent developments.
- Computer Phys. Comm. 248, 107042 (2020).
- X.Gonze, B. Amadon, G. Antonius, F.Arnardi, L.Baguet, J.-M.Beuken,
- J.Bieder, F.Bottin, J.Bouchet, E.Bousquet, N.Brouwer, F.Bruneval,
- G.Brunin, T.Cavignac, J.-B. Charraud, Wei Chen, M.Cote, S.Cottenier,
- J.Denier, G.Geneste, Ph.Ghosez, M.Giantomassi, Y.Gillet, O.Gingras,
- D.R.Hamann, G.Hautier, Xu He, N.Helbig, N.Holzwarth, Y.Jia, F.Jollet,
- W.Lafargue-Dit-Hauret, K.Lejaeghere, M.A.L.Marques, A.Martin, C.Martins,
- H.P.C. Miranda, F.Naccarato, K. Persson, G.Petretto, V.Planes, Y.Pouillon,
- S.Prokhorenko, F.Ricci, G.-M.Rignanese, A.H.Romero, M.M.Schmitt, M.Torrent,
- M.J.van Setten, B.Van Troeye, M.J.Verstraete, G.Zerah and J.W.Zwanzig
- Comment: the fifth generic paper describing the ABINIT project.
- Note that a version of this paper, that is not formatted for Computer Phys. Comm. 
- is available at https://www.abinit.org/sites/default/files/ABINIT20.pdf .
- The licence allows the authors to put it on the Web.
- DOI and bibtex: see https://docs.abinit.org/theory/bibliography/#gonze2020
-
- [5] ABINIT: Overview, and focus on selected capabilities
- J. Chem. Phys. 152, 124102 (2020).
- A. Romero, D.C. Allan, B. Amadon, G. Antonius, T. Applencourt, L.Baguet,
- J.Bieder, F.Bottin, J.Bouchet, E.Bousquet, F.Bruneval,
- G.Brunin, D.Caliste, M.Cote,
- J.Denier, C. Dreyer, Ph.Ghosez, M.Giantomassi, Y.Gillet, O.Gingras,
- D.R.Hamann, G.Hautier, F.Jollet, G. Jomard,
- A.Martin, 
- H.P.C. Miranda, F.Naccarato, G.Petretto, N.A. Pike, V.Planes,
- S.Prokhorenko, T. Rangel, F.Ricci, G.-M.Rignanese, M.Royo, M.Stengel, M.Torrent,
- M.J.van Setten, B.Van Troeye, M.J.Verstraete, J.Wiktor, J.W.Zwanziger, and X.Gonze.
- Comment: a global overview of ABINIT, with focus on selected capabilities .
- Note that a version of this paper, that is not formatted for J. Chem. Phys 
- is available at https://www.abinit.org/sites/default/files/ABINIT20_JPC.pdf .
- The licence allows the authors to put it on the Web.
- DOI and bibtex: see https://docs.abinit.org/theory/bibliography/#romero2020
-
- [6] Recent developments in the ABINIT software package.
- Computer Phys. Comm. 205, 106 (2016).
- X.Gonze, F.Jollet, F.Abreu Araujo, D.Adams, B.Amadon, T.Applencourt,
- C.Audouze, J.-M.Beuken, J.Bieder, A.Bokhanchuk, E.Bousquet, F.Bruneval
- D.Caliste, M.Cote, F.Dahm, F.Da Pieve, M.Delaveau, M.Di Gennaro,
- B.Dorado, C.Espejo, G.Geneste, L.Genovese, A.Gerossier, M.Giantomassi,
- Y.Gillet, D.R.Hamann, L.He, G.Jomard, J.Laflamme Janssen, S.Le Roux,
- A.Levitt, A.Lherbier, F.Liu, I.Lukacevic, A.Martin, C.Martins,
- M.J.T.Oliveira, S.Ponce, Y.Pouillon, T.Rangel, G.-M.Rignanese,
- A.H.Romero, B.Rousseau, O.Rubel, A.A.Shukri, M.Stankovski, M.Torrent,
- M.J.Van Setten, B.Van Troeye, M.J.Verstraete, D.Waroquier, J.Wiktor,
- B.Xu, A.Zhou, J.W.Zwanziger.
- Comment: the fourth generic paper describing the ABINIT project.
- Note that a version of this paper, that is not formatted for Computer Phys. Comm. 
- is available at https://www.abinit.org/sites/default/files/ABINIT16.pdf .
- The licence allows the authors to put it on the Web.
- DOI and bibtex: see https://docs.abinit.org/theory/bibliography/#gonze2016
-
- Proc.   0 individual time (sec): cpu=        228.8  wall=        241.8
 
================================================================================
 
 Calculation completed.
.Delivered  18 WARNINGs and   0 COMMENTs to log file.
+Overall time at end (sec) : cpu=       3852.1  wall=       3867.0
