
.Version 10.4.0.1 of ABINIT, released Apr 2025.
.(MPI version, prepared for a x86_64_linux_intel2025.0 computer) 

.Copyright (C) 1998-2025 ABINIT group . 
 ABINIT comes with ABSOLUTELY NO WARRANTY.
 It is free software, and you are welcome to redistribute it
 under certain conditions (GNU General Public License,
 see ~abinit/COPYING or http://www.gnu.org/copyleft/gpl.txt).

 ABINIT is a project of the Universite Catholique de Louvain,
 Corning Inc. and other collaborators, see ~abinit/doc/developers/contributors.txt .
 Please read https://docs.abinit.org/theory/acknowledgments for suggested
 acknowledgments of the ABINIT effort.
 For more information, see https://www.abinit.org .

.Starting date : Sun  4 May 2025.
- ( at 19h44 )
  
- input  file    -> run.abi
- output file    -> run.abo
- root for input  files -> in
- root for output files -> out
 
 DATASET    1 : space group Fd -3 m (#227); Bravais cF (face-center cubic)
================================================================================
 Values of the parameters that define the memory need for DATASET  1.
     intxc =       0    ionmov =       0      iscf =       7    lmnmax =       2
     lnmax =       2     mgfft =      18  mpssoang =       3    mqgrid =    3001
     natom =       2  nloc_mem =       1    nspden =       1   nspinor =       1
    nsppol =       1      nsym =      48    n1xccc =    2501    ntypat =       1
    occopt =       1   xclevel =       1
-    mband =           4        mffmem =           1         mkmem =           2
       mpw =         193          nfft =        5832          nkpt =           2
================================================================================
P This job should need less than                       2.397 Mbytes of memory.
  Rough estimation (10% accuracy) of disk space for files :
_ WF disk file :      0.026 Mbytes ; DEN or POT disk file :      0.046 Mbytes.
================================================================================
 
 DATASET    2 : space group Fd -3 m (#227); Bravais cF (face-center cubic)
================================================================================
 Values of the parameters that define the memory need for DATASET  2.
     intxc =       0    ionmov =       0      iscf =      -2    lmnmax =       2
     lnmax =       2     mgfft =      18  mpssoang =       3    mqgrid =    3001
     natom =       2  nloc_mem =       1    nspden =       1   nspinor =       1
    nsppol =       1      nsym =      48    n1xccc =    2501    ntypat =       1
    occopt =       1   xclevel =       1
-    mband =          35        mffmem =           1         mkmem =           6
       mpw =         202          nfft =        5832          nkpt =           6
================================================================================
P This job should need less than                       2.383 Mbytes of memory.
  Rough estimation (10% accuracy) of disk space for files :
_ WF disk file :      0.649 Mbytes ; DEN or POT disk file :      0.046 Mbytes.
================================================================================
 
 DATASET    3 : space group Fd -3 m (#227); Bravais cF (face-center cubic)
================================================================================
 Values of the parameters that define the memory need for DATASET  3.
     intxc =       0    ionmov =       0      iscf =       7    lmnmax =       2
     lnmax =       2     mgfft =      18  mpssoang =       3    mqgrid =    3001
     natom =       2  nloc_mem =       1    nspden =       1   nspinor =       1
    nsppol =       1      nsym =      48    n1xccc =    2501    ntypat =       1
    occopt =       1   xclevel =       1
-    mband =          25        mffmem =           1         mkmem =           6
       mpw =         202          nfft =        5832          nkpt =           6
================================================================================
P This job should need less than                       2.886 Mbytes of memory.
  Rough estimation (10% accuracy) of disk space for files :
_ WF disk file :      0.464 Mbytes ; DEN or POT disk file :      0.046 Mbytes.
================================================================================
 
 DATASET    4 : space group Fd -3 m (#227); Bravais cF (face-center cubic)
================================================================================
 Values of the parameters that define the memory need for DATASET  4.
     intxc =       0    ionmov =       0      iscf =       7    lmnmax =       2
     lnmax =       2     mgfft =      18  mpssoang =       3    mqgrid =    3001
     natom =       2  nloc_mem =       1    nspden =       1   nspinor =       1
    nsppol =       1      nsym =      48    n1xccc =    2501    ntypat =       1
    occopt =       1   xclevel =       1
-    mband =          30        mffmem =           1         mkmem =           6
       mpw =         202          nfft =        5832          nkpt =           6
================================================================================
P This job should need less than                       2.990 Mbytes of memory.
  Rough estimation (10% accuracy) of disk space for files :
_ WF disk file :      0.557 Mbytes ; DEN or POT disk file :      0.046 Mbytes.
================================================================================
 
--------------------------------------------------------------------------------
------------- Echo of variables that govern the present computation ------------
--------------------------------------------------------------------------------
-
- outvars: echo of selected default values
-   iomode0 =  0 , fftalg0 =512 , wfoptalg0 =  0
-
- outvars: echo of global parameters not present in the input file
-  max_nthreads =    1
-
 -outvars: echo values of preprocessed input variables --------
            acell      1.0000000000E+00  1.0000000000E+00  1.0000000000E+00 Bohr
              amu      2.80855000E+01
             bdgw4          1       8       1       8       1       8       1       8
                            1       8       1       8
             ecut      6.00000000E+00 Hartree
          ecuteps1     0.00000000E+00 Hartree
          ecuteps2     0.00000000E+00 Hartree
          ecuteps3     8.00000000E+00 Hartree
          ecuteps4     0.00000000E+00 Hartree
         ecutsigx1     0.00000000E+00 Hartree
         ecutsigx2     0.00000000E+00 Hartree
         ecutsigx3     0.00000000E+00 Hartree
         ecutsigx4     6.00000000E+00 Hartree
          ecutwfn1     0.00000000E+00 Hartree
          ecutwfn2     0.00000000E+00 Hartree
          ecutwfn3     6.00000000E+00 Hartree
          ecutwfn4     6.00000000E+00 Hartree
-          fftalg         512
           getden1          0
           getden2          1
           getden3          0
           getden4          0
           getscr1          0
           getscr2          0
           getscr3          0
           getscr4          3
           getwfk1          0
           getwfk2          0
           getwfk3          2
           getwfk4          2
          inclvkb1          2
          inclvkb2          2
          inclvkb3          0
          inclvkb4          2
             iscf1          7
             iscf2         -2
             iscf3          7
             iscf4          7
           istwfk2       0    0    1    0    1    1
           istwfk3       0    0    1    0    1    1
           istwfk4       0    0    1    0    1    1
           jdtset        1    2    3    4
              kpt1    -2.50000000E-01  5.00000000E-01  0.00000000E+00
                      -2.50000000E-01  0.00000000E+00  0.00000000E+00
              kpt2    -2.50000000E-01 -2.50000000E-01  0.00000000E+00
                      -2.50000000E-01  2.50000000E-01  0.00000000E+00
                       5.00000000E-01  5.00000000E-01  0.00000000E+00
                      -2.50000000E-01  5.00000000E-01  2.50000000E-01
                       5.00000000E-01  0.00000000E+00  0.00000000E+00
                       0.00000000E+00  0.00000000E+00  0.00000000E+00
              kpt3    -2.50000000E-01 -2.50000000E-01  0.00000000E+00
                      -2.50000000E-01  2.50000000E-01  0.00000000E+00
                       5.00000000E-01  5.00000000E-01  0.00000000E+00
                      -2.50000000E-01  5.00000000E-01  2.50000000E-01
                       5.00000000E-01  0.00000000E+00  0.00000000E+00
                       0.00000000E+00  0.00000000E+00  0.00000000E+00
              kpt4    -2.50000000E-01 -2.50000000E-01  0.00000000E+00
                      -2.50000000E-01  2.50000000E-01  0.00000000E+00
                       5.00000000E-01  5.00000000E-01  0.00000000E+00
                      -2.50000000E-01  5.00000000E-01  2.50000000E-01
                       5.00000000E-01  0.00000000E+00  0.00000000E+00
                       0.00000000E+00  0.00000000E+00  0.00000000E+00
            kptgw4    -2.50000000E-01 -2.50000000E-01  0.00000000E+00
                      -2.50000000E-01  2.50000000E-01  0.00000000E+00
                       5.00000000E-01  5.00000000E-01  0.00000000E+00
                      -2.50000000E-01  5.00000000E-01  2.50000000E-01
                       5.00000000E-01  0.00000000E+00  0.00000000E+00
                       0.00000000E+00  0.00000000E+00  0.00000000E+00
         kptrlatt        2   -2    2     -2    2    2     -2   -2    2
          kptrlen      2.06687963E+01
P           mkmem1          2
P           mkmem2          6
P           mkmem3          6
P           mkmem4          6
            natom           2
            nband1          4
            nband2         35
            nband3         25
            nband4         30
           nbdbuf1          0
           nbdbuf2          5
           nbdbuf3          0
           nbdbuf4          0
           ndtset           4
            ngfft          18      18      18
             nkpt1          2
             nkpt2          6
             nkpt3          6
             nkpt4          6
           nkptgw1          0
           nkptgw2          0
           nkptgw3          0
           nkptgw4          6
           npweps1          0
           npweps2          0
           npweps3        307
           npweps4          0
          npwsigx1          0
          npwsigx2          0
          npwsigx3          0
          npwsigx4        181
           npwwfn1          0
           npwwfn2          0
           npwwfn3        181
           npwwfn4        181
             nsym          48
           ntypat           1
              occ1     2.000000  2.000000  2.000000  2.000000
              occ3     2.000000  2.000000  2.000000  2.000000  0.000000  0.000000
                       0.000000  0.000000  0.000000  0.000000  0.000000  0.000000
                       0.000000  0.000000  0.000000  0.000000  0.000000  0.000000
                       0.000000  0.000000  0.000000  0.000000  0.000000  0.000000
                       0.000000
              occ4     2.000000  2.000000  2.000000  2.000000  0.000000  0.000000
                       0.000000  0.000000  0.000000  0.000000  0.000000  0.000000
                       0.000000  0.000000  0.000000  0.000000  0.000000  0.000000
                       0.000000  0.000000  0.000000  0.000000  0.000000  0.000000
                       0.000000  0.000000  0.000000  0.000000  0.000000  0.000000
        optdriver1          0
        optdriver2          0
        optdriver3          3
        optdriver4          4
           ppmfrq1     0.00000000E+00 Hartree
           ppmfrq2     0.00000000E+00 Hartree
           ppmfrq3     6.13713734E-01 Hartree
           ppmfrq4     0.00000000E+00 Hartree
            rprim      6.3285005521E+00  0.0000000000E+00  3.6537614973E+00
                       2.1095001840E+00  5.9665675402E+00  3.6537614973E+00
                       0.0000000000E+00  0.0000000000E+00  7.3075229946E+00
           shiftk1     5.00000000E-01  5.00000000E-01  5.00000000E-01
           shiftk2     0.00000000E+00  0.00000000E+00  0.00000000E+00
           shiftk3     0.00000000E+00  0.00000000E+00  0.00000000E+00
           shiftk4     0.00000000E+00  0.00000000E+00  0.00000000E+00
          spgroup         227
           symrel      1  0  0   0  1  0   0  0  1      -1  0  0   0 -1  0   0  0 -1
                       0 -1  1   0 -1  0   1 -1  0       0  1 -1   0  1  0  -1  1  0
                      -1  0  0  -1  0  1  -1  1  0       1  0  0   1  0 -1   1 -1  0
                       0  1 -1   1  0 -1   0  0 -1       0 -1  1  -1  0  1   0  0  1
                      -1  0  0  -1  1  0  -1  0  1       1  0  0   1 -1  0   1  0 -1
                       0 -1  1   1 -1  0   0 -1  0       0  1 -1  -1  1  0   0  1  0
                       1  0  0   0  0  1   0  1  0      -1  0  0   0  0 -1   0 -1  0
                       0  1 -1   0  0 -1   1  0 -1       0 -1  1   0  0  1  -1  0  1
                      -1  0  1  -1  1  0  -1  0  0       1  0 -1   1 -1  0   1  0  0
                       0 -1  0   1 -1  0   0 -1  1       0  1  0  -1  1  0   0  1 -1
                       1  0 -1   0  0 -1   0  1 -1      -1  0  1   0  0  1   0 -1  1
                       0  1  0   0  0  1   1  0  0       0 -1  0   0  0 -1  -1  0  0
                       1  0 -1   0  1 -1   0  0 -1      -1  0  1   0 -1  1   0  0  1
                       0 -1  0   0 -1  1   1 -1  0       0  1  0   0  1 -1  -1  1  0
                      -1  0  1  -1  0  0  -1  1  0       1  0 -1   1  0  0   1 -1  0
                       0  1  0   1  0  0   0  0  1       0 -1  0  -1  0  0   0  0 -1
                       0  0 -1   0  1 -1   1  0 -1       0  0  1   0 -1  1  -1  0  1
                       1 -1  0   0 -1  1   0 -1  0      -1  1  0   0  1 -1   0  1  0
                       0  0  1   1  0  0   0  1  0       0  0 -1  -1  0  0   0 -1  0
                      -1  1  0  -1  0  0  -1  0  1       1 -1  0   1  0  0   1  0 -1
                       0  0  1   0  1  0   1  0  0       0  0 -1   0 -1  0  -1  0  0
                       1 -1  0   0 -1  0   0 -1  1      -1  1  0   0  1  0   0  1 -1
                       0  0 -1   1  0 -1   0  1 -1       0  0  1  -1  0  1   0 -1  1
                      -1  1  0  -1  0  1  -1  0  0       1 -1  0   1  0 -1   1  0  0
           timopt          -1
            tnons      0.0000000  0.0000000  0.0000000     0.2500000  0.2500000  0.2500000
                       0.0000000  0.0000000  0.0000000     0.2500000  0.2500000  0.2500000
                       0.0000000  0.0000000  0.0000000     0.2500000  0.2500000  0.2500000
                       0.0000000  0.0000000  0.0000000     0.2500000  0.2500000  0.2500000
                       0.0000000  0.0000000  0.0000000     0.2500000  0.2500000  0.2500000
                       0.0000000  0.0000000  0.0000000     0.2500000  0.2500000  0.2500000
                       0.0000000  0.0000000  0.0000000     0.2500000  0.2500000  0.2500000
                       0.0000000  0.0000000  0.0000000     0.2500000  0.2500000  0.2500000
                       0.0000000  0.0000000  0.0000000     0.2500000  0.2500000  0.2500000
                       0.0000000  0.0000000  0.0000000     0.2500000  0.2500000  0.2500000
                       0.0000000  0.0000000  0.0000000     0.2500000  0.2500000  0.2500000
                       0.0000000  0.0000000  0.0000000     0.2500000  0.2500000  0.2500000
                       0.0000000  0.0000000  0.0000000     0.2500000  0.2500000  0.2500000
                       0.0000000  0.0000000  0.0000000     0.2500000  0.2500000  0.2500000
                       0.0000000  0.0000000  0.0000000     0.2500000  0.2500000  0.2500000
                       0.0000000  0.0000000  0.0000000     0.2500000  0.2500000  0.2500000
                       0.0000000  0.0000000  0.0000000     0.2500000  0.2500000  0.2500000
                       0.0000000  0.0000000  0.0000000     0.2500000  0.2500000  0.2500000
                       0.0000000  0.0000000  0.0000000     0.2500000  0.2500000  0.2500000
                       0.0000000  0.0000000  0.0000000     0.2500000  0.2500000  0.2500000
                       0.0000000  0.0000000  0.0000000     0.2500000  0.2500000  0.2500000
                       0.0000000  0.0000000  0.0000000     0.2500000  0.2500000  0.2500000
                       0.0000000  0.0000000  0.0000000     0.2500000  0.2500000  0.2500000
                       0.0000000  0.0000000  0.0000000     0.2500000  0.2500000  0.2500000
           tolvrs1     1.00000000E-06
           tolvrs2     0.00000000E+00
           tolvrs3     0.00000000E+00
           tolvrs4     0.00000000E+00
           tolwfr1     0.00000000E+00
           tolwfr2     1.00000000E-12
           tolwfr3     0.00000000E+00
           tolwfr4     0.00000000E+00
            typat      1  1
              wtk1       0.75000    0.25000
              wtk2       0.18750    0.37500    0.09375    0.18750    0.12500    0.03125
              wtk3       0.18750    0.37500    0.09375    0.18750    0.12500    0.03125
              wtk4       0.18750    0.37500    0.09375    0.18750    0.12500    0.03125
           xangst      0.0000000000E+00  0.0000000000E+00  0.0000000000E+00
                       1.1162994189E+00  7.8934288895E-01  1.9334873100E+00
            xcart      0.0000000000E+00  0.0000000000E+00  0.0000000000E+00
                       2.1095001840E+00  1.4916418850E+00  3.6537614973E+00
             xred      0.0000000000E+00  0.0000000000E+00  0.0000000000E+00
                       2.5000000000E-01  2.5000000000E-01  2.5000000000E-01
            znucl       14.00000
 
================================================================================
 
 chkinp: Checking input parameters for consistency, jdtset=   1.
 
 chkinp: Checking input parameters for consistency, jdtset=   2.
 
 chkinp: Checking input parameters for consistency, jdtset=   3.
 
 chkinp: Checking input parameters for consistency, jdtset=   4.
 
================================================================================
== DATASET  1 ==================================================================
-   mpi_nproc: 1, omp_nthreads: 1 (-1 if OMP is not activated)
 

--- !DatasetInfo
iteration_state: {dtset: 1, }
dimensions: {natom: 2, nkpt: 2, mband: 4, nsppol: 1, nspinor: 1, nspden: 1, mpw: 193, }
cutoff_energies: {ecut:   6.0, pawecutdg:  -1.0, }
electrons: {nelect:   8.00000000E+00, charge:   0.00000000E+00, occopt:   1.00000000E+00, tsmear:   1.00000000E-02, }
meta: {optdriver: 0, ionmov: 0, optcell: 0, iscf: 7, paral_kgb: 0, }
...

 Exchange-correlation functional for the present dataset will be:
  LDA: new Teter (4/93) with spin-polarized option - ixc=1
 Citation for XC functional:
  S. Goedecker, M. Teter, J. Huetter, PRB 54, 1703 (1996)
 
 Real(R)+Recip(G) space primitive vectors, cartesian coordinates (Bohr,Bohr^-1):
 R(1)=  6.3285006  0.0000000  3.6537615  G(1)=  0.1580153 -0.0558668  0.0000000
 R(2)=  2.1095002  5.9665675  3.6537615  G(2)=  0.0000000  0.1676005  0.0000000
 R(3)=  0.0000000  0.0000000  7.3075230  G(3)= -0.0790077 -0.0558668  0.1368453
 Unit cell volume ucvol=  2.7592787E+02 bohr^3
 Angles (23,13,12)=  6.00000000E+01  6.00000000E+01  6.00000000E+01 degrees
 
 getcut: wavevector=  0.0000  0.0000  0.0000  ngfft=  18  18  18
         ecut(hartree)=      6.000   => boxcut(ratio)=   2.24077
 
 getcut : COMMENT -
  Note that boxcut > 2.2 ; recall that boxcut=Gcut(box)/Gcut(sphere) = 2
  is sufficient for exact treatment of convolution.
  Such a large boxcut is a waste : you could raise ecut
  e.g. ecut=    7.531595 Hartrees makes boxcut=2
 
 
--- Pseudopotential description ------------------------------------------------
- pspini: atom type   1  psp file is /home/tsaih/program/abinit.worktrees/gwr/tests/Pspdir/PseudosTM_pwteter/14si.pspnc
- pspatm: opening atomic psp file    /home/tsaih/program/abinit.worktrees/gwr/tests/Pspdir/PseudosTM_pwteter/14si.pspnc
-  Troullier-Martins psp for element  Si        Thu Oct 27 17:31:21 EDT 1994
- 14.00000   4.00000    940714                znucl, zion, pspdat
    1    1    2    2      2001   0.00000      pspcod,pspxc,lmax,lloc,mmax,r2well
    0   5.907  14.692    1   2.0872718        l,e99.0,e99.9,nproj,rcpsp
   0.00000000   0.00000000   0.00000000   0.00000000     rms, ekb1, ekb2, epsatm
    1   2.617   4.181    1   2.0872718        l,e99.0,e99.9,nproj,rcpsp
   0.00000000   0.00000000   0.00000000   0.00000000     rms, ekb1, ekb2, epsatm
    2   0.000   0.000    0   2.0872718        l,e99.0,e99.9,nproj,rcpsp
   0.00000000   0.00000000   0.00000000   0.00000000     rms, ekb1, ekb2, epsatm
    1.80626423934776    0.22824404341771    1.17378968127746   rchrg,fchrg,qchrg
  pspatm : epsatm=    1.43386982
         --- l  ekb(1:nproj) -->
             0    3.287949
             1    1.849886
 pspatm: atomic psp has been read  and splines computed
 
   2.29419171E+01                                ecore*ucvol(ha*bohr**3)
--------------------------------------------------------------------------------
 
_setup2: Arith. and geom. avg. npw (full set) are     192.250     192.250
 
================================================================================

--- !BeginCycle
iteration_state: {dtset: 1, }
solver: {iscf: 7, nstep: 30, nline: 4, wfoptalg: 0, }
tolerances: {tolvrs: 1.00E-06, }
...
 
     iter   Etot(hartree)      deltaE(h)  residm     vres2
 ETOT  1  -8.8539699324923    -8.854E+00 1.523E-03 4.088E+00
 ETOT  2  -8.8589323410717    -4.962E-03 1.688E-08 1.757E-01
 ETOT  3  -8.8590552906133    -1.229E-04 3.979E-07 4.059E-03
 ETOT  4  -8.8590571321725    -1.842E-06 1.028E-08 1.372E-05
 ETOT  5  -8.8590571408668    -8.694E-09 3.447E-11 8.705E-09
 
 At SCF step    5       vres2   =  8.70E-09 < tolvrs=  1.00E-06 =>converged.
 
 Cartesian components of stress tensor (hartree/bohr^3)
  sigma(1 1)=  1.68072705E-04  sigma(3 2)=  0.00000000E+00
  sigma(2 2)=  1.68072705E-04  sigma(3 1)=  0.00000000E+00
  sigma(3 3)=  1.68072705E-04  sigma(2 1)=  2.62240360E-15
 

--- !ResultsGS
iteration_state: {dtset: 1, }
comment   : Summary of ground state results
lattice_vectors:
- [  6.3285006,   0.0000000,   3.6537615, ]
- [  2.1095002,   5.9665675,   3.6537615, ]
- [  0.0000000,   0.0000000,   7.3075230, ]
lattice_lengths: [   7.30752,    7.30752,    7.30752, ]
lattice_angles: [ 60.000,  60.000,  60.000, ] # degrees, (23, 13, 12)
lattice_volume:   2.7592787E+02
convergence: {deltae: -8.694E-09, res2:  8.705E-09, residm:  3.447E-11, diffor: null, }
etotal    :  -8.85905714E+00
entropy   :   0.00000000E+00
fermie    :   1.78724472E-01
cartesian_stress_tensor: # hartree/bohr^3
- [  1.68072705E-04,   2.62240360E-15,   0.00000000E+00, ]
- [  2.62240360E-15,   1.68072705E-04,   0.00000000E+00, ]
- [  0.00000000E+00,   0.00000000E+00,   1.68072705E-04, ]
pressure_GPa:  -4.9449E+00
xred      :
- [  0.0000E+00,   0.0000E+00,   0.0000E+00, Si]
- [  2.5000E-01,   2.5000E-01,   2.5000E-01, Si]
cartesian_forces: # hartree/bohr
- [ -7.84892744E-29,   2.56126972E-29,   1.84237889E-29, ]
- [  7.84892744E-29,  -2.56126972E-29,  -1.84237889E-29, ]
force_length_stats: {min:   8.45932176E-29, max:   8.45932176E-29, mean:   8.45932176E-29, }
...

 Integrated electronic density in atomic spheres:
 ------------------------------------------------
 Atom  Sphere_radius  Integrated_density
    1        2.00000          1.69826555
    2        2.00000          1.70348788
================================================================================
 
 ----iterations are completed or convergence reached----
 
 Mean square residual over all n,k,spin=   13.624E-12; max=  34.467E-12
 reduced coordinates (array xred) for    2 atoms
       0.000000000000      0.000000000000      0.000000000000
       0.250000000000      0.250000000000      0.250000000000
 rms dE/dt=  3.0446E-28; max dE/dt=  4.2940E-28; dE/dt below (all hartree)
    1       0.000000000000     -0.000000000000      0.000000000000
    2      -0.000000000000      0.000000000000      0.000000000000
 
 cartesian coordinates (angstrom) at end:
    1      0.00000000000000     0.00000000000000     0.00000000000000
    2      1.11629941890244     0.78934288894668     1.93348730999483
 
 cartesian forces (hartree/bohr) at end:
    1     -0.00000000000000     0.00000000000000     0.00000000000000
    2      0.00000000000000    -0.00000000000000    -0.00000000000000
 frms,max,avg= 4.8839917E-29 7.8489274E-29   0.000E+00  0.000E+00  0.000E+00 h/b
 
 cartesian forces (eV/Angstrom) at end:
    1     -0.00000000000000     0.00000000000000     0.00000000000000
    2      0.00000000000000    -0.00000000000000    -0.00000000000000
 frms,max,avg= 2.5114493E-27 4.0360804E-27   0.000E+00  0.000E+00  0.000E+00 e/A
 length scales=  1.000000000000  1.000000000000  1.000000000000 bohr
              =  0.529177208590  0.529177208590  0.529177208590 angstroms
 prteigrs : about to open file out_DS1_EIG
 Fermi (or HOMO) energy (hartree) =   0.17872   Average Vxc (hartree)=  -0.34938
 Eigenvalues (hartree) for nkpt=   2  k points:
 kpt#   1, nband=  4, wtk=  0.75000, kpt= -0.2500  0.5000  0.0000 (reduced coord)
  -0.13042   -0.02698    0.07698    0.12575
 prteigrs : prtvol=0 or 1, do not print more k-points.
 

--- !EnergyTerms
iteration_state     : {dtset: 1, }
comment             : Components of total free energy in Hartree
kinetic             :  2.98424665750725E+00
hartree             :  5.60014857400919E-01
xc                  : -3.52181650133511E+00
Ewald energy        : -8.33998919456550E+00
psp_core            :  8.31446161857513E-02
local_psp           : -2.53296403437259E+00
non_local_psp       :  1.90830645831245E+00
total_energy        : -8.85905714086683E+00
total_energy_eV     : -2.41067204497802E+02
band_energy         :  1.77808187943006E-01
...

 
 Cartesian components of stress tensor (hartree/bohr^3)
  sigma(1 1)=  1.68072705E-04  sigma(3 2)=  0.00000000E+00
  sigma(2 2)=  1.68072705E-04  sigma(3 1)=  0.00000000E+00
  sigma(3 3)=  1.68072705E-04  sigma(2 1)=  2.62240360E-15
 
-Cartesian components of stress tensor (GPa)         [Pressure= -4.9449E+00 GPa]
- sigma(1 1)=  4.94486887E+00  sigma(3 2)=  0.00000000E+00
- sigma(2 2)=  4.94486887E+00  sigma(3 1)=  0.00000000E+00
- sigma(3 3)=  4.94486887E+00  sigma(2 1)=  7.71537648E-11
 
================================================================================
== DATASET  2 ==================================================================
-   mpi_nproc: 1, omp_nthreads: 1 (-1 if OMP is not activated)
 

--- !DatasetInfo
iteration_state: {dtset: 2, }
dimensions: {natom: 2, nkpt: 6, mband: 35, nsppol: 1, nspinor: 1, nspden: 1, mpw: 202, }
cutoff_energies: {ecut:   6.0, pawecutdg:  -1.0, }
electrons: {nelect:   8.00000000E+00, charge:   0.00000000E+00, occopt:   1.00000000E+00, tsmear:   1.00000000E-02, }
meta: {optdriver: 0, ionmov: 0, optcell: 0, iscf: -2, paral_kgb: 0, }
...

 mkfilename : getden/=0, take file _DEN from output of DATASET   1.
 
 Exchange-correlation functional for the present dataset will be:
  LDA: new Teter (4/93) with spin-polarized option - ixc=1
 Citation for XC functional:
  S. Goedecker, M. Teter, J. Huetter, PRB 54, 1703 (1996)
 
 Real(R)+Recip(G) space primitive vectors, cartesian coordinates (Bohr,Bohr^-1):
 R(1)=  6.3285006  0.0000000  3.6537615  G(1)=  0.1580153 -0.0558668  0.0000000
 R(2)=  2.1095002  5.9665675  3.6537615  G(2)=  0.0000000  0.1676005  0.0000000
 R(3)=  0.0000000  0.0000000  7.3075230  G(3)= -0.0790077 -0.0558668  0.1368453
 Unit cell volume ucvol=  2.7592787E+02 bohr^3
 Angles (23,13,12)=  6.00000000E+01  6.00000000E+01  6.00000000E+01 degrees
 
 getcut: wavevector=  0.0000  0.0000  0.0000  ngfft=  18  18  18
         ecut(hartree)=      6.000   => boxcut(ratio)=   2.24077
 
 getcut : COMMENT -
  Note that boxcut > 2.2 ; recall that boxcut=Gcut(box)/Gcut(sphere) = 2
  is sufficient for exact treatment of convolution.
  Such a large boxcut is a waste : you could raise ecut
  e.g. ecut=    7.531595 Hartrees makes boxcut=2
 
--------------------------------------------------------------------------------
 
 
================================================================================
 prteigrs : about to open file out_DS2_EIG
 Non-SCF case, kpt    1 ( -0.25000 -0.25000  0.00000), residuals and eigenvalues=
  3.76E-14  4.63E-14  1.51E-13  2.06E-13  1.52E-13  1.39E-13  9.90E-14  7.21E-14
  2.76E-14  2.18E-14  2.62E-14  2.92E-13  2.78E-13  5.20E-14  4.88E-13  8.56E-13
  2.51E-13  1.69E-13  1.26E-13  2.80E-13  8.44E-14  2.17E-13  2.73E-13  6.84E-13
  8.20E-13  4.98E-13  1.70E-13  7.63E-13  5.93E-13  9.50E-13  2.60E-13  2.58E-11
  4.24E-10  6.03E-09  2.99E-05
 -1.9006E-01  7.6398E-02  1.3735E-01  1.3735E-01  2.4582E-01  3.1849E-01
  4.1454E-01  4.1454E-01  4.8866E-01  5.4339E-01  6.0889E-01  6.8125E-01
  6.8125E-01  7.0508E-01  8.3602E-01  8.3602E-01  8.8849E-01  9.3343E-01
  9.7004E-01  1.1231E+00  1.1813E+00  1.2029E+00  1.2029E+00  1.2731E+00
  1.2731E+00  1.2992E+00  1.3098E+00  1.4729E+00  1.4992E+00  1.5148E+00
  1.5148E+00  1.5607E+00  1.5607E+00  1.5779E+00  1.6317E+00
 prteigrs : prtvol=0 or 1, do not print more k-points.
 
 

--- !ResultsGS
iteration_state: {dtset: 2, }
comment   : Summary of ground state results
lattice_vectors:
- [  6.3285006,   0.0000000,   3.6537615, ]
- [  2.1095002,   5.9665675,   3.6537615, ]
- [  0.0000000,   0.0000000,   7.3075230, ]
lattice_lengths: [   7.30752,    7.30752,    7.30752, ]
lattice_angles: [ 60.000,  60.000,  60.000, ] # degrees, (23, 13, 12)
lattice_volume:   2.7592787E+02
convergence: {deltae:  0.000E+00, res2:  0.000E+00, residm:  9.501E-13, diffor:  0.000E+00, }
etotal    :  -8.85905714E+00
entropy   :   0.00000000E+00
fermie    :   1.78724472E-01
cartesian_stress_tensor: null
pressure_GPa: null
xred      :
- [  0.0000E+00,   0.0000E+00,   0.0000E+00, Si]
- [  2.5000E-01,   2.5000E-01,   2.5000E-01, Si]
cartesian_forces: null
force_length_stats: {min: null, max: null, mean: null, }
...

 Integrated electronic density in atomic spheres:
 ------------------------------------------------
 Atom  Sphere_radius  Integrated_density
    1        2.00000          1.69826555
    2        2.00000          1.70348788
================================================================================
 
 ----iterations are completed or convergence reached----
 
 Mean square residual over all n,k,spin=   29.801E-14; max=  95.009E-14
 reduced coordinates (array xred) for    2 atoms
       0.000000000000      0.000000000000      0.000000000000
       0.250000000000      0.250000000000      0.250000000000
 
 cartesian coordinates (angstrom) at end:
    1      0.00000000000000     0.00000000000000     0.00000000000000
    2      1.11629941890244     0.78934288894668     1.93348730999483
 length scales=  1.000000000000  1.000000000000  1.000000000000 bohr
              =  0.529177208590  0.529177208590  0.529177208590 angstroms
 prteigrs : about to open file out_DS2_EIG
 Eigenvalues (hartree) for nkpt=   6  k points:
 kpt#   1, nband= 35, wtk=  0.18750, kpt= -0.2500 -0.2500  0.0000 (reduced coord)
  -0.19006    0.07640    0.13735    0.13735    0.24582    0.31849    0.41454    0.41454
   0.48866    0.54339    0.60889    0.68125    0.68125    0.70508    0.83602    0.83602
   0.88849    0.93343    0.97004    1.12306    1.18129    1.20290    1.20290    1.27311
   1.27311    1.29922    1.30981    1.47287    1.49918    1.51485    1.51485    1.56073
   1.56073    1.57786    1.63168
 prteigrs : prtvol=0 or 1, do not print more k-points.
 
 
================================================================================
== DATASET  3 ==================================================================
-   mpi_nproc: 1, omp_nthreads: 1 (-1 if OMP is not activated)
 

--- !DatasetInfo
iteration_state: {dtset: 3, }
dimensions: {natom: 2, nkpt: 6, mband: 25, nsppol: 1, nspinor: 1, nspden: 1, mpw: 202, }
cutoff_energies: {ecut:   6.0, pawecutdg:  -1.0, }
electrons: {nelect:   8.00000000E+00, charge:   0.00000000E+00, occopt:   1.00000000E+00, tsmear:   1.00000000E-02, }
meta: {optdriver: 3, gwcalctyp: 0, }
...

 mkfilename : getwfk/=0, take file _WFK from output of DATASET   2.
 
 Exchange-correlation functional for the present dataset will be:
  LDA: new Teter (4/93) with spin-polarized option - ixc=1
 Citation for XC functional:
  S. Goedecker, M. Teter, J. Huetter, PRB 54, 1703 (1996)
 
 SCREENING: Calculation of the susceptibility and dielectric matrices 
 
 Based on a program developped by R.W. Godby, V. Olevano, G. Onida, and L. Reining.
 Incorporated in ABINIT by V. Olevano, G.-M. Rignanese, and M. Torrent.
.Using single precision arithmetic ; gwpc =  4
 
 Real(R)+Recip(G) space primitive vectors, cartesian coordinates (Bohr,Bohr^-1):
 R(1)=  6.3285006  0.0000000  3.6537615  G(1)=  0.1580153 -0.0558668  0.0000000
 R(2)=  2.1095002  5.9665675  3.6537615  G(2)=  0.0000000  0.1676005  0.0000000
 R(3)=  0.0000000  0.0000000  7.3075230  G(3)= -0.0790077 -0.0558668  0.1368453
 Unit cell volume ucvol=  2.7592787E+02 bohr^3
 Angles (23,13,12)=  6.00000000E+01  6.00000000E+01  6.00000000E+01 degrees
--------------------------------------------------------------------------------
 
 ==== K-mesh for the wavefunctions ====
 Number of points in the irreducible wedge :     6
 Reduced coordinates and weights : 
 
     1)    -2.50000000E-01 -2.50000000E-01  0.00000000E+00       0.18750
     2)    -2.50000000E-01  2.50000000E-01  0.00000000E+00       0.37500
     3)     5.00000000E-01  5.00000000E-01  0.00000000E+00       0.09375
     4)    -2.50000000E-01  5.00000000E-01  2.50000000E-01       0.18750
     5)     5.00000000E-01  0.00000000E+00  0.00000000E+00       0.12500
     6)     0.00000000E+00  0.00000000E+00  0.00000000E+00       0.03125
 
 Together with 48 symmetry operations and time-reversal symmetry 
 yields    32 points in the full Brillouin Zone.
 
 
 ==== Q-mesh for the screening function ====
 Number of points in the irreducible wedge :     6
 Reduced coordinates and weights : 
 
     1)     0.00000000E+00  0.00000000E+00  0.00000000E+00       0.03125
     2)     5.00000000E-01  5.00000000E-01  0.00000000E+00       0.09375
     3)     5.00000000E-01  2.50000000E-01  2.50000000E-01       0.37500
     4)     0.00000000E+00  5.00000000E-01  0.00000000E+00       0.12500
     5)     5.00000000E-01 -2.50000000E-01  2.50000000E-01       0.18750
     6)     0.00000000E+00 -2.50000000E-01 -2.50000000E-01       0.18750
 
 Together with 48 symmetry operations and time-reversal symmetry 
 yields    32 points in the full Brillouin Zone.
 
 
 setmesh: FFT mesh size selected  =    20x   20x   20
          total number of points  =         8000
 
 
 vcoul_init : cutoff-mode = AUXILIARY_FUNCTION
 q-points for optical limit:   1
     1)      0.000010    0.000020    0.000030
 
- screening: taking advantage of time-reversal symmetry 
- Maximum band index for partially occupied states nbvw = 4
- Remaining bands to be divided among processors   nbcw = 21
- Number of bands treated by each node ~21
 
 Number of electrons calculated from density =    8.0000; Expected =    8.0000
 average of density, n =  0.028993
 r_s =    2.0193
 omega_plasma =   16.4249 [eV]
 
 
 calculating chi0 at frequencies [eV] :
  1    0.000000E+00    0.000000E+00
  2    0.000000E+00    1.670000E+01
 
 
--------------------------------------------------------------------------------
  q-point number  1        q = ( 0.000000, 0.000000, 0.000000) [r.l.u.]
--------------------------------------------------------------------------------
  chi0(G,G') at the    1 th omega   0.0000   0.0000 [eV]
       1       2       3       4       5       6       7       8       9
    1  -0.000   0.000  -0.000  -0.000   0.000   0.000  -0.000  -0.000   0.000
        0.000   0.000   0.000  -0.000  -0.000   0.000   0.000  -0.000  -0.000
 
    2   0.000 -18.113   0.000  -0.245   0.001  -0.246  -0.000  -0.258  -0.001
       -0.000   0.000  -5.176  -0.000  -0.464   0.000  -0.465   0.000  -0.478
 
  chi0(G,G') at the    2 th omega   0.0000  16.7000 [eV]
       1       2       3       4       5       6       7       8       9
    1  -0.000   0.000  -0.000  -0.000   0.000   0.000  -0.000  -0.000   0.000
       -0.000   0.000   0.000  -0.000  -0.000   0.000   0.000  -0.000  -0.000
 
    2   0.000  -6.979   0.000  -0.011   0.001  -0.012  -0.000  -0.021  -0.001
       -0.000   0.000  -0.994  -0.000  -0.181   0.000  -0.181   0.000  -0.191
 
 For q-point:  0.000010 0.000020 0.000030
  dielectric constant =  28.5059
  dielectric constant without local fields =  31.6224
 
  Average fulfillment of the sum rule on Im[epsilon] for q-point    1 :     55.58  [%]
  Heads and wings of the symmetrical epsilon^-1(G,G') 
 
   Upper and lower wings at the    1 th omega   0.0000   0.0000 [eV]
       1       2       3       4       5       6       7       8       9
      0.035   0.003  -0.003  -0.010   0.010   0.010  -0.010  -0.003   0.003
     -0.000   0.003   0.003  -0.010  -0.010   0.010   0.010  -0.003  -0.003
       1       2       3       4       5       6       7       8       9
      0.035   0.003  -0.003  -0.010   0.010   0.010  -0.010  -0.003   0.003
     -0.000  -0.003  -0.003   0.010   0.010  -0.010  -0.010   0.003   0.003
 
 
   Upper and lower wings at the    2 th omega   0.0000  16.7000 [eV]
       1       2       3       4       5       6       7       8       9
      0.451   0.008  -0.008  -0.024   0.024   0.024  -0.024  -0.008   0.008
     -0.000   0.008   0.008  -0.024  -0.024   0.024   0.024  -0.008  -0.008
       1       2       3       4       5       6       7       8       9
      0.451   0.008  -0.008  -0.024   0.024   0.024  -0.024  -0.008   0.008
     -0.000  -0.008  -0.008   0.024   0.024  -0.024  -0.024   0.008   0.008
 
 
 
 
--------------------------------------------------------------------------------
  q-point number  2        q = ( 0.500000, 0.500000, 0.000000) [r.l.u.]
--------------------------------------------------------------------------------
  chi0(G,G') at the    1 th omega   0.0000   0.0000 [eV]
       1       2       3       4       5       6       7       8       9
    1 -18.337  -3.162  -1.286  -1.288  -3.163  -1.288  -3.162  -3.165  -1.284
        0.000  -3.166   1.284  -1.287   3.167  -1.287   3.166  -3.170   1.284
 
    2  -3.162 -14.947  -0.004  -0.204   0.016  -0.203   0.016  -0.111  -0.001
        3.166   0.000  -2.624   0.001   0.434   0.001   0.435   0.002  -0.412
 
  chi0(G,G') at the    2 th omega   0.0000  16.7000 [eV]
       1       2       3       4       5       6       7       8       9
    1  -4.327  -0.894  -0.247  -0.248  -0.895  -0.248  -0.894  -0.897  -0.245
        0.000  -0.897   0.245  -0.248   0.898  -0.248   0.897  -0.901   0.246
 
    2  -0.894  -6.018  -0.003  -0.115   0.012  -0.114   0.012   0.043  -0.001
        0.897   0.000  -0.586   0.000  -0.063   0.000  -0.062   0.002  -0.113
 
  Average fulfillment of the sum rule on Im[epsilon] for q-point    2 :     70.58  [%]
 
 
--------------------------------------------------------------------------------
  q-point number  3        q = ( 0.500000, 0.250000, 0.250000) [r.l.u.]
--------------------------------------------------------------------------------
  chi0(G,G') at the    1 th omega   0.0000   0.0000 [eV]
       1       2       3       4       5       6       7       8       9
    1 -14.869  -2.511   0.393  -2.410  -2.411   0.393  -2.511  -2.410  -2.409
        0.000  -2.511  -0.393  -2.411   2.410   0.393   2.511  -2.409   2.410
 
    2  -2.511 -15.390  -0.000  -0.543  -0.007  -0.196  -0.000  -0.545   0.007
        2.511   0.000  -3.500  -0.002  -0.021   0.000   0.218   0.002  -0.045
 
  chi0(G,G') at the    2 th omega   0.0000  16.7000 [eV]
       1       2       3       4       5       6       7       8       9
    1  -2.548  -0.708   0.245  -0.427  -0.428   0.245  -0.708  -0.427  -0.426
        0.000  -0.708  -0.245  -0.428   0.427   0.245   0.708  -0.426   0.427
 
    2  -0.708  -6.300  -0.000  -0.021  -0.005  -0.044  -0.000  -0.022   0.005
        0.708   0.000  -0.802  -0.001  -0.107   0.000  -0.087   0.001  -0.126
 
  Average fulfillment of the sum rule on Im[epsilon] for q-point    3 :     72.98  [%]
 
 
--------------------------------------------------------------------------------
  q-point number  4        q = ( 0.000000, 0.500000, 0.000000) [r.l.u.]
--------------------------------------------------------------------------------
  chi0(G,G') at the    1 th omega   0.0000   0.0000 [eV]
       1       2       3       4       5       6       7       8       9
    1 -14.714  -2.104  -2.719  -2.102  -2.720  -2.104  -2.720  -2.220   3.107
        0.000  -2.102   2.717  -2.100   2.718  -2.102   2.717  -2.222  -3.107
 
    2  -2.104 -19.865  -0.005   0.076   0.009   0.082   0.009   0.130  -0.000
        2.102   0.000  -2.793   0.000   0.087   0.000   0.087   0.001  -0.962
 
  chi0(G,G') at the    2 th omega   0.0000  16.7000 [eV]
       1       2       3       4       5       6       7       8       9
    1  -3.487  -0.367  -0.726  -0.366  -0.726  -0.367  -0.726  -0.862   0.530
        0.000  -0.365   0.724  -0.364   0.724  -0.365   0.724  -0.863  -0.531
 
    2  -0.367  -6.954  -0.004  -0.109   0.007  -0.104   0.007  -0.017  -0.000
        0.365   0.000  -0.654   0.000  -0.098   0.000  -0.098   0.001  -0.109
 
  Average fulfillment of the sum rule on Im[epsilon] for q-point    4 :     71.44  [%]
 
 
--------------------------------------------------------------------------------
  q-point number  5        q = ( 0.500000,-0.250000, 0.250000) [r.l.u.]
--------------------------------------------------------------------------------
  chi0(G,G') at the    1 th omega   0.0000   0.0000 [eV]
       1       2       3       4       5       6       7       8       9
    1 -19.677  -2.948  -1.459  -3.110  -2.598  -2.595  -3.109  -1.459  -2.952
        0.000  -2.950   1.459  -3.104   2.594  -2.594   3.104  -1.459   2.953
 
    2  -2.948 -12.833  -0.001   0.128  -0.005   0.296  -0.010  -0.429   0.005
        2.950   0.000  -2.591  -0.002   0.141   0.004   0.268  -0.000  -0.040
 
  chi0(G,G') at the    2 th omega   0.0000  16.7000 [eV]
       1       2       3       4       5       6       7       8       9
    1  -4.979  -0.986  -0.062  -0.917  -0.676  -0.674  -0.916  -0.061  -0.990
        0.000  -0.988   0.062  -0.913   0.672  -0.673   0.913  -0.061   0.991
 
    2  -0.986  -5.298  -0.001   0.038  -0.004  -0.066  -0.008  -0.049   0.003
        0.988   0.000  -0.500  -0.001  -0.057   0.003  -0.049  -0.000  -0.093
 
  Average fulfillment of the sum rule on Im[epsilon] for q-point    5 :     70.46  [%]
 
 
--------------------------------------------------------------------------------
  q-point number  6        q = ( 0.000000,-0.250000,-0.250000) [r.l.u.]
--------------------------------------------------------------------------------
  chi0(G,G') at the    1 th omega   0.0000   0.0000 [eV]
       1       2       3       4       5       6       7       8       9
    1 -10.956  -2.321  -0.113  -0.112  -2.320  -2.321  -0.113  -0.112  -2.321
        0.000  -2.322   0.113  -0.112   2.321  -2.322   0.113  -0.111   2.321
 
    2  -2.321 -17.282  -0.001  -0.620   0.006  -0.565  -0.004  -0.624   0.006
        2.322   0.000  -3.604  -0.000   0.023   0.000  -0.556   0.005   0.003
 
  chi0(G,G') at the    2 th omega   0.0000  16.7000 [eV]
       1       2       3       4       5       6       7       8       9
    1  -1.405  -0.445   0.082   0.082  -0.445  -0.445   0.082   0.083  -0.445
        0.000  -0.446  -0.082   0.083   0.445  -0.446  -0.082   0.083   0.446
 
    2  -0.445  -6.881  -0.001  -0.046   0.004   0.015  -0.003  -0.049   0.005
        0.446   0.000  -0.887  -0.000  -0.126   0.000  -0.170   0.004  -0.143
 
  Average fulfillment of the sum rule on Im[epsilon] for q-point    6 :     77.83  [%]
 
================================================================================
== DATASET  4 ==================================================================
-   mpi_nproc: 1, omp_nthreads: 1 (-1 if OMP is not activated)
 

--- !DatasetInfo
iteration_state: {dtset: 4, }
dimensions: {natom: 2, nkpt: 6, mband: 30, nsppol: 1, nspinor: 1, nspden: 1, mpw: 202, }
cutoff_energies: {ecut:   6.0, pawecutdg:  -1.0, }
electrons: {nelect:   8.00000000E+00, charge:   0.00000000E+00, occopt:   1.00000000E+00, tsmear:   1.00000000E-02, }
meta: {optdriver: 4, gwcalctyp: 0, }
...

 mkfilename : getwfk/=0, take file _WFK from output of DATASET   2.
 
 mkfilename : getscr/=0, take file _SCR from output of DATASET   3.
 
 Exchange-correlation functional for the present dataset will be:
  LDA: new Teter (4/93) with spin-polarized option - ixc=1
 Citation for XC functional:
  S. Goedecker, M. Teter, J. Huetter, PRB 54, 1703 (1996)
 
 SIGMA: Calculation of the GW corrections 
 
 Based on a program developped by R.W. Godby, V. Olevano, G. Onida, and L. Reining.
 Incorporated in ABINIT by V. Olevano, G.-M. Rignanese, and M. Torrent.
.Using single precision arithmetic ; gwpc =  4
 
 Real(R)+Recip(G) space primitive vectors, cartesian coordinates (Bohr,Bohr^-1):
 R(1)=  6.3285006  0.0000000  3.6537615  G(1)=  0.1580153 -0.0558668  0.0000000
 R(2)=  2.1095002  5.9665675  3.6537615  G(2)=  0.0000000  0.1676005  0.0000000
 R(3)=  0.0000000  0.0000000  7.3075230  G(3)= -0.0790077 -0.0558668  0.1368453
 Unit cell volume ucvol=  2.7592787E+02 bohr^3
 Angles (23,13,12)=  6.00000000E+01  6.00000000E+01  6.00000000E+01 degrees
--------------------------------------------------------------------------------
 
 ==== K-mesh for the wavefunctions ====
 Number of points in the irreducible wedge :     6
 Reduced coordinates and weights : 
 
     1)    -2.50000000E-01 -2.50000000E-01  0.00000000E+00       0.18750
     2)    -2.50000000E-01  2.50000000E-01  0.00000000E+00       0.37500
     3)     5.00000000E-01  5.00000000E-01  0.00000000E+00       0.09375
     4)    -2.50000000E-01  5.00000000E-01  2.50000000E-01       0.18750
     5)     5.00000000E-01  0.00000000E+00  0.00000000E+00       0.12500
     6)     0.00000000E+00  0.00000000E+00  0.00000000E+00       0.03125
 
 Together with 48 symmetry operations and time-reversal symmetry 
 yields    32 points in the full Brillouin Zone.
 
 
 ==== Q-mesh for screening function ====
 Number of points in the irreducible wedge :     6
 Reduced coordinates and weights : 
 
     1)     0.00000000E+00  0.00000000E+00  0.00000000E+00       0.03125
     2)     5.00000000E-01  5.00000000E-01  0.00000000E+00       0.09375
     3)     5.00000000E-01  2.50000000E-01  2.50000000E-01       0.37500
     4)     0.00000000E+00  5.00000000E-01  0.00000000E+00       0.12500
     5)     5.00000000E-01 -2.50000000E-01  2.50000000E-01       0.18750
     6)     0.00000000E+00 -2.50000000E-01 -2.50000000E-01       0.18750
 
 Together with 48 symmetry operations and time-reversal symmetry 
 yields    32 points in the full Brillouin Zone.
 
 
 
 vcoul_init : cutoff-mode = AUXILIARY_FUNCTION
 q-points for optical limit:   1
     1)      0.000010    0.000020    0.000030
 setmesh: FFT mesh size selected  =    20x   20x   20
          total number of points  =         8000
 
 Number of electrons calculated from density =    8.0000; Expected =    8.0000
 average of density, n =  0.028993
 r_s =    2.0193
 omega_plasma =   16.4249 [eV]
 
 
 === KS Band Gaps ===
  >>>> For spin  1
   Minimum direct gap =   2.5156 [eV], located at k-point      :   0.0000  0.0000  0.0000
   Fundamental gap    =   0.6515 [eV], Top of valence bands at :   0.0000  0.0000  0.0000
                                       Bottom of conduction at :   0.5000  0.5000  0.0000
 SIGMA fundamental parameters:
 PLASMON POLE MODEL  1
 number of plane-waves for SigmaX                  181
 number of plane-waves for SigmaC and W            181
 number of plane-waves for wavefunctions           181
 number of bands                                    30
 number of independent spin polarizations            1
 number of spinorial components                      1
 number of k-points in IBZ                           6
 number of q-points in IBZ                           6
 number of symmetry operations                      48
 number of k-points in BZ                           32
 number of q-points in BZ                           32
 number of frequencies for dSigma/dE                 9
 frequency step for dSigma/dE [eV]                0.25
 number of omega for Sigma on real axis              0
 max omega for Sigma on real axis  [eV]           0.00
 zcut for avoiding poles [eV]                     0.10
 
 EPSILON^-1 parameters (SCR file):
 dimension of the eps^-1 matrix on file            307
 dimension of the eps^-1 matrix used               181
 number of plane-waves for wavefunctions           181
 number of bands                                    25
 number of q-points in IBZ                           6
 number of frequencies                               2
 number of real frequencies                          1
 number of imag frequencies                          1
 
 matrix elements of self-energy operator (all in [eV])
 
 Perturbative Calculation

--- !SelfEnergy_ee
iteration_state: {dtset: 4, }
kpoint     : [  -0.250,   -0.250,    0.000, ]
spin       : 1
KS_gap     :    2.952
QP_gap     :    3.517
Delta_QP_KS:    0.565
data: !SigmaeeData |
     Band     E0 <VxcDFT>   SigX SigC(E0)      Z dSigC/dE  Sig(E)    E-E0       E
        1  -5.172 -10.449 -17.070   6.886   0.573  -0.745 -10.297   0.152  -5.020
        2   2.079 -11.028 -14.203   2.855   0.746  -0.341 -11.266  -0.239   1.840
        3   3.737 -10.605 -13.054   2.147   0.763  -0.310 -10.836  -0.231   3.507
        4   3.737 -10.605 -13.054   2.147   0.763  -0.310 -10.836  -0.231   3.507
        5   6.689  -9.351  -5.273  -3.651   0.783  -0.277  -9.017   0.334   7.024
        6   8.667  -9.204  -4.525  -4.172   0.781  -0.281  -8.808   0.396   9.063
        7  11.280 -10.494  -5.232  -4.682   0.753  -0.328 -10.057   0.437  11.717
        8  11.280 -10.494  -5.232  -4.682   0.753  -0.328 -10.057   0.437  11.717
...


--- !SelfEnergy_ee
iteration_state: {dtset: 4, }
kpoint     : [  -0.250,    0.250,    0.000, ]
spin       : 1
KS_gap     :    3.683
QP_gap     :    4.307
Delta_QP_KS:    0.624
data: !SigmaeeData |
     Band     E0 <VxcDFT>   SigX SigC(E0)      Z dSigC/dE  Sig(E)    E-E0       E
        1  -4.214 -10.568 -16.789   6.272   0.648  -0.543 -10.535   0.034  -4.180
        2   0.151 -10.759 -14.884   3.792   0.718  -0.393 -10.998  -0.239  -0.088
        3   1.883  -9.983 -12.903   2.606   0.749  -0.335 -10.218  -0.235   1.648
        4   4.296 -10.824 -13.174   2.049   0.765  -0.307 -11.054  -0.230   4.066
        5   7.980  -9.566  -5.058  -4.004   0.779  -0.283  -9.173   0.393   8.373
        6  10.346 -10.045  -4.812  -4.658   0.757  -0.320  -9.609   0.436  10.781
        7  10.658 -10.144  -5.335  -4.306   0.766  -0.305  -9.759   0.385  11.043
        8  11.494  -9.823  -4.360  -4.977   0.752  -0.330  -9.457   0.366  11.860
...


--- !SelfEnergy_ee
iteration_state: {dtset: 4, }
kpoint     : [   0.500,    0.500,    0.000, ]
spin       : 1
KS_gap     :    3.505
QP_gap     :    4.112
Delta_QP_KS:    0.607
data: !SigmaeeData |
     Band     E0 <VxcDFT>   SigX SigC(E0)      Z dSigC/dE  Sig(E)    E-E0       E
        1  -2.143 -10.713 -15.983   5.061   0.688  -0.453 -10.857  -0.144  -2.287
        2  -2.143 -10.713 -15.983   5.061   0.688  -0.453 -10.857  -0.144  -2.287
        3   2.779 -10.482 -13.439   2.583   0.754  -0.326 -10.764  -0.283   2.496
        4   2.779 -10.482 -13.439   2.583   0.754  -0.326 -10.764  -0.283   2.496
        5   6.284  -9.000  -4.978  -3.611   0.788  -0.269  -8.676   0.324   6.608
        6   6.284  -9.000  -4.978  -3.611   0.788  -0.269  -8.676   0.324   6.608
        7  15.388 -10.498  -3.817  -6.232   0.692  -0.444 -10.187   0.311  15.699
        8  15.388 -10.498  -3.817  -6.232   0.692  -0.444 -10.187   0.311  15.699
...


--- !SelfEnergy_ee
iteration_state: {dtset: 4, }
kpoint     : [  -0.250,    0.500,    0.250, ]
spin       : 1
KS_gap     :    8.089
QP_gap     :    8.701
Delta_QP_KS:    0.612
data: !SigmaeeData |
     Band     E0 <VxcDFT>   SigX SigC(E0)      Z dSigC/dE  Sig(E)    E-E0       E
        1  -1.993 -10.828 -16.045   4.989   0.683  -0.464 -10.984  -0.156  -2.149
        2  -1.993 -10.828 -16.045   4.989   0.683  -0.464 -10.984  -0.156  -2.149
        3   1.783  -9.918 -12.919   2.668   0.750  -0.333 -10.168  -0.251   1.533
        4   1.783  -9.918 -12.919   2.668   0.750  -0.333 -10.168  -0.251   1.533
        5   9.872  -9.521  -4.857  -4.198   0.774  -0.291  -9.160   0.361  10.233
        6   9.872  -9.521  -4.857  -4.198   0.774  -0.291  -9.160   0.361  10.233
        7  10.453 -10.002  -4.716  -4.721   0.760  -0.316  -9.573   0.429  10.882
        8  10.453 -10.002  -4.716  -4.721   0.760  -0.316  -9.573   0.429  10.882
...


--- !SelfEnergy_ee
iteration_state: {dtset: 4, }
kpoint     : [   0.500,    0.000,    0.000, ]
spin       : 1
KS_gap     :    2.543
QP_gap     :    3.136
Delta_QP_KS:    0.593
data: !SigmaeeData |
     Band     E0 <VxcDFT>   SigX SigC(E0)      Z dSigC/dE  Sig(E)    E-E0       E
        1  -3.909 -10.709 -16.828   6.045   0.625  -0.601 -10.755  -0.046  -3.955
        2  -1.311 -10.128 -14.841   4.429   0.677  -0.478 -10.320  -0.193  -1.504
        3   4.424 -10.912 -13.292   2.067   0.765  -0.307 -11.151  -0.239   4.185
        4   4.424 -10.912 -13.292   2.067   0.765  -0.307 -11.151  -0.239   4.185
        5   6.967 -10.016  -5.752  -3.810   0.778  -0.285  -9.663   0.353   7.320
        6   8.979  -9.619  -4.901  -4.139   0.777  -0.288  -9.169   0.450   9.429
        7   8.979  -9.619  -4.901  -4.139   0.777  -0.288  -9.169   0.450   9.429
        8  13.090  -7.924  -2.379  -5.250   0.759  -0.318  -7.700   0.224  13.314
...


--- !SelfEnergy_ee
iteration_state: {dtset: 4, }
kpoint     : [   0.000,    0.000,    0.000, ]
spin       : 1
KS_gap     :    2.516
QP_gap     :    3.117
Delta_QP_KS:    0.601
data: !SigmaeeData |
     Band     E0 <VxcDFT>   SigX SigC(E0)      Z dSigC/dE  Sig(E)    E-E0       E
        1  -6.232 -10.362 -17.429   7.539   0.605  -0.652 -10.076   0.286  -5.947
        2   5.633 -11.161 -13.118   1.700   0.773  -0.294 -11.359  -0.199   5.434
        3   5.633 -11.161 -13.118   1.700   0.773  -0.294 -11.359  -0.199   5.434
        4   5.633 -11.161 -13.118   1.700   0.773  -0.294 -11.359  -0.199   5.434
        5   8.148  -9.967  -5.517  -3.929   0.773  -0.294  -9.565   0.403   8.551
        6   8.148  -9.967  -5.517  -3.929   0.773  -0.294  -9.565   0.403   8.551
        7   8.148  -9.967  -5.517  -3.929   0.773  -0.294  -9.565   0.403   8.551
        8   8.526 -10.766  -5.898  -4.383   0.767  -0.303 -10.394   0.372   8.898
...

 
 New Fermi energy :        2.212728E-01 Ha ,    6.021139E+00 eV
 New Exchange energy :    -2.125932E+00 Ha ,   -5.784955E+01 eV
 
 === QP Band Gaps ===
  >>>> For spin  1
   Minimum direct gap =   3.1170 [eV], located at k-point      :   0.0000  0.0000  0.0000
   Fundamental gap    =   1.1742 [eV], Top of valence bands at :   0.0000  0.0000  0.0000
                                       Bottom of conduction at :   0.5000  0.5000  0.0000
 
== END DATASET(S) ==============================================================
================================================================================
  
 -outvars: echo values of variables after computation  --------
            acell      1.0000000000E+00  1.0000000000E+00  1.0000000000E+00 Bohr
              amu      2.80855000E+01
             bdgw4          1       8       1       8       1       8       1       8
                            1       8       1       8
             ecut      6.00000000E+00 Hartree
          ecuteps1     0.00000000E+00 Hartree
          ecuteps2     0.00000000E+00 Hartree
          ecuteps3     8.00000000E+00 Hartree
          ecuteps4     0.00000000E+00 Hartree
         ecutsigx1     0.00000000E+00 Hartree
         ecutsigx2     0.00000000E+00 Hartree
         ecutsigx3     0.00000000E+00 Hartree
         ecutsigx4     6.00000000E+00 Hartree
          ecutwfn1     0.00000000E+00 Hartree
          ecutwfn2     0.00000000E+00 Hartree
          ecutwfn3     6.00000000E+00 Hartree
          ecutwfn4     6.00000000E+00 Hartree
           etotal1    -8.8590571409E+00
           etotal3     0.0000000000E+00
           etotal4     0.0000000000E+00
            fcart1    -7.8489274444E-29  2.5612697175E-29  1.8423788917E-29
                       7.8489274444E-29 -2.5612697175E-29 -1.8423788917E-29
            fcart3     0.0000000000E+00  0.0000000000E+00  0.0000000000E+00
                       0.0000000000E+00  0.0000000000E+00  0.0000000000E+00
            fcart4     0.0000000000E+00  0.0000000000E+00  0.0000000000E+00
                       0.0000000000E+00  0.0000000000E+00  0.0000000000E+00
-          fftalg         512
           getden1          0
           getden2          1
           getden3          0
           getden4          0
           getscr1          0
           getscr2          0
           getscr3          0
           getscr4          3
           getwfk1          0
           getwfk2          0
           getwfk3          2
           getwfk4          2
          inclvkb1          2
          inclvkb2          2
          inclvkb3          0
          inclvkb4          2
             iscf1          7
             iscf2         -2
             iscf3          7
             iscf4          7
           istwfk2       0    0    1    0    1    1
           istwfk3       0    0    1    0    1    1
           istwfk4       0    0    1    0    1    1
           jdtset        1    2    3    4
              kpt1    -2.50000000E-01  5.00000000E-01  0.00000000E+00
                      -2.50000000E-01  0.00000000E+00  0.00000000E+00
              kpt2    -2.50000000E-01 -2.50000000E-01  0.00000000E+00
                      -2.50000000E-01  2.50000000E-01  0.00000000E+00
                       5.00000000E-01  5.00000000E-01  0.00000000E+00
                      -2.50000000E-01  5.00000000E-01  2.50000000E-01
                       5.00000000E-01  0.00000000E+00  0.00000000E+00
                       0.00000000E+00  0.00000000E+00  0.00000000E+00
              kpt3    -2.50000000E-01 -2.50000000E-01  0.00000000E+00
                      -2.50000000E-01  2.50000000E-01  0.00000000E+00
                       5.00000000E-01  5.00000000E-01  0.00000000E+00
                      -2.50000000E-01  5.00000000E-01  2.50000000E-01
                       5.00000000E-01  0.00000000E+00  0.00000000E+00
                       0.00000000E+00  0.00000000E+00  0.00000000E+00
              kpt4    -2.50000000E-01 -2.50000000E-01  0.00000000E+00
                      -2.50000000E-01  2.50000000E-01  0.00000000E+00
                       5.00000000E-01  5.00000000E-01  0.00000000E+00
                      -2.50000000E-01  5.00000000E-01  2.50000000E-01
                       5.00000000E-01  0.00000000E+00  0.00000000E+00
                       0.00000000E+00  0.00000000E+00  0.00000000E+00
            kptgw4    -2.50000000E-01 -2.50000000E-01  0.00000000E+00
                      -2.50000000E-01  2.50000000E-01  0.00000000E+00
                       5.00000000E-01  5.00000000E-01  0.00000000E+00
                      -2.50000000E-01  5.00000000E-01  2.50000000E-01
                       5.00000000E-01  0.00000000E+00  0.00000000E+00
                       0.00000000E+00  0.00000000E+00  0.00000000E+00
         kptrlatt        2   -2    2     -2    2    2     -2   -2    2
          kptrlen      2.06687963E+01
P           mkmem1          2
P           mkmem2          6
P           mkmem3          6
P           mkmem4          6
            natom           2
            nband1          4
            nband2         35
            nband3         25
            nband4         30
           nbdbuf1          0
           nbdbuf2          5
           nbdbuf3          0
           nbdbuf4          0
           ndtset           4
            ngfft          18      18      18
             nkpt1          2
             nkpt2          6
             nkpt3          6
             nkpt4          6
           nkptgw1          0
           nkptgw2          0
           nkptgw3          0
           nkptgw4          6
           npweps1          0
           npweps2          0
           npweps3        307
           npweps4          0
          npwsigx1          0
          npwsigx2          0
          npwsigx3          0
          npwsigx4        181
           npwwfn1          0
           npwwfn2          0
           npwwfn3        181
           npwwfn4        181
             nsym          48
           ntypat           1
              occ1     2.000000  2.000000  2.000000  2.000000
              occ3     2.000000  2.000000  2.000000  2.000000  0.000000  0.000000
                       0.000000  0.000000  0.000000  0.000000  0.000000  0.000000
                       0.000000  0.000000  0.000000  0.000000  0.000000  0.000000
                       0.000000  0.000000  0.000000  0.000000  0.000000  0.000000
                       0.000000
              occ4     2.000000  2.000000  2.000000  2.000000  0.000000  0.000000
                       0.000000  0.000000  0.000000  0.000000  0.000000  0.000000
                       0.000000  0.000000  0.000000  0.000000  0.000000  0.000000
                       0.000000  0.000000  0.000000  0.000000  0.000000  0.000000
                       0.000000  0.000000  0.000000  0.000000  0.000000  0.000000
        optdriver1          0
        optdriver2          0
        optdriver3          3
        optdriver4          4
           ppmfrq1     0.00000000E+00 Hartree
           ppmfrq2     0.00000000E+00 Hartree
           ppmfrq3     6.13713734E-01 Hartree
           ppmfrq4     0.00000000E+00 Hartree
            rprim      6.3285005521E+00  0.0000000000E+00  3.6537614973E+00
                       2.1095001840E+00  5.9665675402E+00  3.6537614973E+00
                       0.0000000000E+00  0.0000000000E+00  7.3075229946E+00
           shiftk1     5.00000000E-01  5.00000000E-01  5.00000000E-01
           shiftk2     0.00000000E+00  0.00000000E+00  0.00000000E+00
           shiftk3     0.00000000E+00  0.00000000E+00  0.00000000E+00
           shiftk4     0.00000000E+00  0.00000000E+00  0.00000000E+00
          spgroup         227
           strten1     1.6807270502E-04  1.6807270502E-04  1.6807270502E-04
                       0.0000000000E+00  0.0000000000E+00  2.6224036038E-15
           strten3     0.0000000000E+00  0.0000000000E+00  0.0000000000E+00
                       0.0000000000E+00  0.0000000000E+00  0.0000000000E+00
           strten4     0.0000000000E+00  0.0000000000E+00  0.0000000000E+00
                       0.0000000000E+00  0.0000000000E+00  0.0000000000E+00
           symrel      1  0  0   0  1  0   0  0  1      -1  0  0   0 -1  0   0  0 -1
                       0 -1  1   0 -1  0   1 -1  0       0  1 -1   0  1  0  -1  1  0
                      -1  0  0  -1  0  1  -1  1  0       1  0  0   1  0 -1   1 -1  0
                       0  1 -1   1  0 -1   0  0 -1       0 -1  1  -1  0  1   0  0  1
                      -1  0  0  -1  1  0  -1  0  1       1  0  0   1 -1  0   1  0 -1
                       0 -1  1   1 -1  0   0 -1  0       0  1 -1  -1  1  0   0  1  0
                       1  0  0   0  0  1   0  1  0      -1  0  0   0  0 -1   0 -1  0
                       0  1 -1   0  0 -1   1  0 -1       0 -1  1   0  0  1  -1  0  1
                      -1  0  1  -1  1  0  -1  0  0       1  0 -1   1 -1  0   1  0  0
                       0 -1  0   1 -1  0   0 -1  1       0  1  0  -1  1  0   0  1 -1
                       1  0 -1   0  0 -1   0  1 -1      -1  0  1   0  0  1   0 -1  1
                       0  1  0   0  0  1   1  0  0       0 -1  0   0  0 -1  -1  0  0
                       1  0 -1   0  1 -1   0  0 -1      -1  0  1   0 -1  1   0  0  1
                       0 -1  0   0 -1  1   1 -1  0       0  1  0   0  1 -1  -1  1  0
                      -1  0  1  -1  0  0  -1  1  0       1  0 -1   1  0  0   1 -1  0
                       0  1  0   1  0  0   0  0  1       0 -1  0  -1  0  0   0  0 -1
                       0  0 -1   0  1 -1   1  0 -1       0  0  1   0 -1  1  -1  0  1
                       1 -1  0   0 -1  1   0 -1  0      -1  1  0   0  1 -1   0  1  0
                       0  0  1   1  0  0   0  1  0       0  0 -1  -1  0  0   0 -1  0
                      -1  1  0  -1  0  0  -1  0  1       1 -1  0   1  0  0   1  0 -1
                       0  0  1   0  1  0   1  0  0       0  0 -1   0 -1  0  -1  0  0
                       1 -1  0   0 -1  0   0 -1  1      -1  1  0   0  1  0   0  1 -1
                       0  0 -1   1  0 -1   0  1 -1       0  0  1  -1  0  1   0 -1  1
                      -1  1  0  -1  0  1  -1  0  0       1 -1  0   1  0 -1   1  0  0
           timopt          -1
            tnons      0.0000000  0.0000000  0.0000000     0.2500000  0.2500000  0.2500000
                       0.0000000  0.0000000  0.0000000     0.2500000  0.2500000  0.2500000
                       0.0000000  0.0000000  0.0000000     0.2500000  0.2500000  0.2500000
                       0.0000000  0.0000000  0.0000000     0.2500000  0.2500000  0.2500000
                       0.0000000  0.0000000  0.0000000     0.2500000  0.2500000  0.2500000
                       0.0000000  0.0000000  0.0000000     0.2500000  0.2500000  0.2500000
                       0.0000000  0.0000000  0.0000000     0.2500000  0.2500000  0.2500000
                       0.0000000  0.0000000  0.0000000     0.2500000  0.2500000  0.2500000
                       0.0000000  0.0000000  0.0000000     0.2500000  0.2500000  0.2500000
                       0.0000000  0.0000000  0.0000000     0.2500000  0.2500000  0.2500000
                       0.0000000  0.0000000  0.0000000     0.2500000  0.2500000  0.2500000
                       0.0000000  0.0000000  0.0000000     0.2500000  0.2500000  0.2500000
                       0.0000000  0.0000000  0.0000000     0.2500000  0.2500000  0.2500000
                       0.0000000  0.0000000  0.0000000     0.2500000  0.2500000  0.2500000
                       0.0000000  0.0000000  0.0000000     0.2500000  0.2500000  0.2500000
                       0.0000000  0.0000000  0.0000000     0.2500000  0.2500000  0.2500000
                       0.0000000  0.0000000  0.0000000     0.2500000  0.2500000  0.2500000
                       0.0000000  0.0000000  0.0000000     0.2500000  0.2500000  0.2500000
                       0.0000000  0.0000000  0.0000000     0.2500000  0.2500000  0.2500000
                       0.0000000  0.0000000  0.0000000     0.2500000  0.2500000  0.2500000
                       0.0000000  0.0000000  0.0000000     0.2500000  0.2500000  0.2500000
                       0.0000000  0.0000000  0.0000000     0.2500000  0.2500000  0.2500000
                       0.0000000  0.0000000  0.0000000     0.2500000  0.2500000  0.2500000
                       0.0000000  0.0000000  0.0000000     0.2500000  0.2500000  0.2500000
           tolvrs1     1.00000000E-06
           tolvrs2     0.00000000E+00
           tolvrs3     0.00000000E+00
           tolvrs4     0.00000000E+00
           tolwfr1     0.00000000E+00
           tolwfr2     1.00000000E-12
           tolwfr3     0.00000000E+00
           tolwfr4     0.00000000E+00
            typat      1  1
              wtk1       0.75000    0.25000
              wtk2       0.18750    0.37500    0.09375    0.18750    0.12500    0.03125
              wtk3       0.18750    0.37500    0.09375    0.18750    0.12500    0.03125
              wtk4       0.18750    0.37500    0.09375    0.18750    0.12500    0.03125
           xangst      0.0000000000E+00  0.0000000000E+00  0.0000000000E+00
                       1.1162994189E+00  7.8934288895E-01  1.9334873100E+00
            xcart      0.0000000000E+00  0.0000000000E+00  0.0000000000E+00
                       2.1095001840E+00  1.4916418850E+00  3.6537614973E+00
             xred      0.0000000000E+00  0.0000000000E+00  0.0000000000E+00
                       2.5000000000E-01  2.5000000000E-01  2.5000000000E-01
            znucl       14.00000
 
================================================================================
 
 Test the timer : 
  a combined call timab(*,1,tsec) + timab(*,2,tsec) is 
- CPU time =    9.6095E-07 sec,    Wall time =    9.6103E-07 sec

- Total cpu        time (s,m,h):         15.5        0.26      0.004
- Total wall clock time (s,m,h):         15.6        0.26      0.004
-
- For major independent code sections, cpu and wall times (sec),
-  as well as % of the time and number of calls for node 0
-
-<BEGIN_TIMER mpi_nprocs = 1, omp_nthreads = 1, mpi_rank = 0>
- cpu_time =           15.5, wall_time =           15.6
-
- routine                                    cpu     %          wall   %        number of calls Gflops    Speedup Efficacity
-                                                                                (-1=no count)
- sigma/=fourdp                            14.275  91.9        14.319  91.8              1      -1.00        1.00       1.00
- fourwf%(pot)                              0.144   0.9         0.144   0.9           4810      -1.00        1.00       1.00
- timing timab                              0.125   0.8         0.125   0.8             13      -1.00        1.00       1.00
- pspini                                    0.051   0.3         0.051   0.3              4      -1.00        1.00       1.00
- get_dtsets_pspheads                       0.050   0.3         0.051   0.3              1      -1.00        0.98       0.98
- vtowfk(ssdiag)                            0.039   0.3         0.039   0.3             -1      -1.00        1.00       1.00
- projbd                                    0.030   0.2         0.030   0.2           6778      -1.00        1.00       1.00
- nonlop(apply)                             0.027   0.2         0.027   0.2           4810      -1.00        0.99       0.99
- abinit(outvars)                           0.024   0.2         0.024   0.2              1      -1.00        1.00       1.00
- abinit(after driver)                      0.024   0.2         0.025   0.2              1      -1.00        0.97       0.97
- ewald                                     0.017   0.1         0.017   0.1              4      -1.00        1.00       1.00
- getghc(/=fourXX,nonlop,fock_XX)           0.011   0.1         0.011   0.1             -1      -1.00        1.03       1.03
- abinit(chkinp,chkvars)                    0.011   0.1         0.011   0.1              1      -1.00        1.00       1.00
- newkpt(excl. rwwf   )                     0.006   0.0         0.006   0.0             -1      -1.00        1.00       1.00
- fourdp                                    0.004   0.0         0.006   0.0             39      -1.00        0.75       0.75
- stress                                    0.003   0.0         0.003   0.0              1      -1.00        1.00       1.00
- abinit(init,iofn1,herald)                 0.003   0.0         0.010   0.1              1      -1.00        0.30       0.30
- ewald2 (+vdw_dftd)                        0.003   0.0         0.003   0.0              1      -1.00        1.00       1.00
- xc:pot/=fourdp                            0.002   0.0         0.002   0.0             10      -1.00        1.00       1.00
- wfd_read_wfk                              0.002   0.0         0.002   0.0              2      -1.00        1.00       1.00
- mkcore                                    0.001   0.0         0.001   0.0              6      -1.00        1.00       1.00
- fourwf%(den)                              0.001   0.0         0.001   0.0             40      -1.00        0.99       0.99
- setsym                                    0.001   0.0         0.001   0.0              2      -1.00        1.00       1.00
- forces                                    0.000   0.0         0.000   0.0              1      -1.00        1.00       1.00
- symrhg(no FFT)                            0.000   0.0         0.000   0.0              7      -1.00        1.00       1.00
- kpgsph                                    0.000   0.0         0.000   0.0             93      -1.00        1.00       1.00
- vtowfk(contrib)                           0.000   0.0         0.000   0.0             16      -1.00        1.03       1.03
- mkffnl                                    0.000   0.0         0.000   0.0             18      -1.00        1.01       1.01
- nonlop(forstr)                            0.000   0.0         0.000   0.0              8      -1.00        1.01       1.01
- scfcv-scprqt                              0.000   0.0         0.000   0.0              5      -1.00        1.01       1.01
- vtowfk  (1)                               0.000   0.0         0.000   0.0             16      -1.00        0.96       0.96
- inwffil(excl. calls)                      0.000   0.0         0.000   0.0              2      -1.00        0.96       0.96
- others (127)                              0.000   0.0         0.000   0.0             -1      -1.00        0.00       0.00
-<END_TIMER>
-
- subtotal                                 14.855  95.7        14.910  95.6                                  1.00       1.00

- For major independent code sections, cpu and wall times (sec),
- as well as % of the total time and number of calls 

-<BEGIN_TIMER mpi_nprocs = 1, omp_nthreads = 1, mpi_rank = world>
- cpu_time =          15.5, wall_time =          15.6
-
- routine                                    cpu     %          wall   %        number of calls Gflops    Speedup Efficacity
-                                                                                (-1=no count)
- sigma/=fourdp                            14.275  91.9        14.319  91.8              1      -1.00        1.00       1.00
- fourwf%(pot)                              0.144   0.9         0.144   0.9           4810      -1.00        1.00       1.00
- timing timab                              0.125   0.8         0.125   0.8             13      -1.00        1.00       1.00
- pspini                                    0.051   0.3         0.051   0.3              4      -1.00        1.00       1.00
- get_dtsets_pspheads                       0.050   0.3         0.051   0.3              1      -1.00        0.98       0.98
- vtowfk(ssdiag)                            0.039   0.3         0.039   0.3             -1      -1.00        1.00       1.00
- projbd                                    0.030   0.2         0.030   0.2           6778      -1.00        1.00       1.00
- nonlop(apply)                             0.027   0.2         0.027   0.2           4810      -1.00        0.99       0.99
- abinit(outvars)                           0.024   0.2         0.024   0.2              1      -1.00        1.00       1.00
- abinit(after driver)                      0.024   0.2         0.025   0.2              1      -1.00        0.97       0.97
- ewald                                     0.017   0.1         0.017   0.1              4      -1.00        1.00       1.00
- getghc(/=fourXX,nonlop,fock_XX)           0.011   0.1         0.011   0.1             -1      -1.00        1.03       1.03
- abinit(chkinp,chkvars)                    0.011   0.1         0.011   0.1              1      -1.00        1.00       1.00
- newkpt(excl. rwwf   )                     0.006   0.0         0.006   0.0             -1      -1.00        1.00       1.00
- fourdp                                    0.004   0.0         0.006   0.0             39      -1.00        0.75       0.75
- stress                                    0.003   0.0         0.003   0.0              1      -1.00        1.00       1.00
- abinit(init,iofn1,herald)                 0.003   0.0         0.010   0.1              1      -1.00        0.30       0.30
- ewald2 (+vdw_dftd)                        0.003   0.0         0.003   0.0              1      -1.00        1.00       1.00
- xc:pot/=fourdp                            0.002   0.0         0.002   0.0             10      -1.00        1.00       1.00
- wfd_read_wfk                              0.002   0.0         0.002   0.0              2      -1.00        1.00       1.00
- mkcore                                    0.001   0.0         0.001   0.0              6      -1.00        1.00       1.00
- fourwf%(den)                              0.001   0.0         0.001   0.0             40      -1.00        0.99       0.99
- setsym                                    0.001   0.0         0.001   0.0              2      -1.00        1.00       1.00
- forces                                    0.000   0.0         0.000   0.0              1      -1.00        1.00       1.00
- symrhg(no FFT)                            0.000   0.0         0.000   0.0              7      -1.00        1.00       1.00
- kpgsph                                    0.000   0.0         0.000   0.0             93      -1.00        1.00       1.00
- vtowfk(contrib)                           0.000   0.0         0.000   0.0             16      -1.00        1.03       1.03
- mkffnl                                    0.000   0.0         0.000   0.0             18      -1.00        1.01       1.01
- nonlop(forstr)                            0.000   0.0         0.000   0.0              8      -1.00        1.01       1.01
- scfcv-scprqt                              0.000   0.0         0.000   0.0              5      -1.00        1.01       1.01
- vtowfk  (1)                               0.000   0.0         0.000   0.0             16      -1.00        0.96       0.96
- inwffil(excl. calls)                      0.000   0.0         0.000   0.0              2      -1.00        0.96       0.96
- others (127)                              0.000   0.0         0.000   0.0             -1      -1.00        0.00       0.00
-<END_TIMER>

- subtotal                                 14.855  95.7        14.910  95.6                                  1.00       1.00

 Partitioning of abinit
- abinit                                   15.528 100.0        15.603 100.0              1                   1.00       1.00
 
- abinit(init,iofn1,herald)                 0.003   0.0         0.010   0.1              1                   0.30       0.30
- get_dtsets_pspheads                       0.050   0.3         0.051   0.3              1                   0.98       0.98
- abinit(outvars)                           0.024   0.2         0.024   0.2              1                   1.00       1.00
- abinit(chkinp,chkvars)                    0.011   0.1         0.011   0.1              1                   1.00       1.00
- driver                                   15.279  98.4        15.345  98.4              1                   1.00       1.00
- abinit(after driver)                      0.024   0.2         0.025   0.2              1                   0.97       0.97
- timing timab                              0.125   0.8         0.125   0.8             13                   1.00       1.00
- (other)                                   0.011   0.1         0.012   0.1             -1                   0.99       0.99

- subtotal                                 15.528 100.0        15.603 100.0                                  1.00       1.00

 Partitioning of driver
- driver                                   15.279  98.4        15.345  98.4              1                   1.00       1.00
 
- screening                                 0.625   4.0         0.626   4.0              1                   1.00       1.00
- sigma                                    14.275  91.9        14.319  91.8              1                   1.00       1.00
- (other)                                   0.379   2.4         0.400   2.6             -1                   0.95       0.95

- subtotal                                 15.279  98.4        15.345  98.4                                  1.00       1.00

 Partitioning of gstateimg+gstate
- gstateimg                                 0.378   2.4         0.400   2.6              2                   0.95       0.95
 
- gstate(1)                                 0.007   0.0         0.007   0.0              4                   1.00       1.00
- gstate(pspini)                            0.051   0.3         0.051   0.3              2                   1.00       1.00
- gstate(init rhor rhog)                    0.004   0.0         0.005   0.0              2                   0.71       0.71
- gstate(...scfcv)                          0.314   2.0         0.334   2.1              2                   0.94       0.94

- subtotal                                  0.378   2.4         0.400   2.6                                  0.95       0.95

 Partitioning of scfcv_core
- scfcv_core                                0.314   2.0         0.334   2.1              2                   0.94       0.94
 
- scfcv_core(setvtr)                        0.011   0.1         0.011   0.1              6                   1.00       1.00
- scfcv_core(vtorho(f))                     0.277   1.8         0.277   1.8              6                   1.00       1.00
- scfcv_core(afterscfloop)                  0.004   0.0         0.004   0.0              2                   1.00       1.00
- scfcv_core(outscfcv)                      0.019   0.1         0.039   0.3              2                   0.49       0.49

- subtotal                                  0.314   2.0         0.334   2.1                                  0.94       0.94

 Partitioning of rhotov
- rhotov                                    0.001   0.0         0.001   0.0              5                   1.00       1.00
 

- subtotal                                  0.001   0.0         0.001   0.0                                  1.00       1.00

 Partitioning of vtorho
- vtorho                                    0.277   1.8         0.277   1.8              6                   1.00       1.00
 
- vtowfk                                    0.276   1.8         0.276   1.8             16                   1.00       1.00

- subtotal                                  0.277   1.8         0.277   1.8                                  1.00       1.00

 Partitioning of vtowfk
- vtowfk                                    0.276   1.8         0.276   1.8             16                   1.00       1.00
 
- cgwf                                      0.235   1.5         0.235   1.5             53                   1.00       1.00
- vtowfk(subdiago)                          0.005   0.0         0.005   0.0             53                   1.00       1.00
- vtowfk(pw_orthon)                         0.034   0.2         0.034   0.2             53                   1.00       1.00

- subtotal                                  0.276   1.8         0.276   1.8                                  1.00       1.00

 Partitioning of cgwf
- cgwf                                      0.235   1.5         0.235   1.5             53                   1.00       1.00
 
- getghc%cgwf                               0.182   1.2         0.182   1.2           4810                   1.00       1.00
- cgwf-O(npw)                               0.023   0.1         0.023   0.1             -1                   1.00       1.00
- projbd%cgwf                               0.030   0.2         0.030   0.2           6778                   1.00       1.00

- subtotal                                  0.235   1.5         0.235   1.5                                  1.00       1.00

 Partitioning of getghc
- getghc                                    0.182   1.2         0.182   1.2           4810                   1.00       1.00
 
- fourwf%getghc                             0.144   0.9         0.144   0.9           4810                   1.00       1.00
- nonlop%getghc                             0.027   0.2         0.027   0.2           4810                   0.99       0.99
- getghc(/=fourXX,nonlop,fock_XX)           0.011   0.1         0.011   0.1             -1                   1.03       1.03

- subtotal                                  0.182   1.2         0.182   1.2                                  1.00       1.00

 Partitioning of fourwf (upwards partitioning)
- fourwf                                    0.145   0.9         0.145   0.9           4850                   1.00       1.00
 
- fourwf%getghc                             0.144   0.9         0.144   0.9           4810                   1.00       1.00

- subtotal                                  0.145   0.9         0.145   0.9                                  1.00       1.00

 Partitioning of screening
- screening                                 0.625   4.0         0.626   4.0              1                   1.00       1.00
 
- screening(init1)                          0.114   0.7         0.114   0.7              1                   1.00       1.00
- screening(wfs)                            0.007   0.0         0.007   0.0              1                   1.00       1.00
- screening(1)                              0.006   0.0         0.006   0.0              1                   1.00       1.00
- screening(density)                        0.005   0.0         0.005   0.0              1                   1.00       1.00
- screening(2)                              0.004   0.0         0.004   0.0              1                   1.00       1.00
- screening(cchi0q0)                        0.061   0.4         0.061   0.4              1                   1.00       1.00
- screening(cchi0)                          0.385   2.5         0.386   2.5              5                   1.00       1.00
- screening(q-loop,end)                     0.035   0.2         0.035   0.2              6                   1.00       1.00
- screening(wrt scr files)                  0.007   0.0         0.007   0.0              6                   1.00       1.00

- subtotal                                  0.625   4.0         0.626   4.0                                  1.00       1.00

 Partitioning of sigma
- sigma                                    14.275  91.9        14.319  91.8              1                   1.00       1.00
 
- sigma(Init1)                              0.005   0.0         0.005   0.0              2                   1.00       1.00
- setup_sigma                               0.105   0.7         0.105   0.7              1                   1.00       1.00
- sigma(make_vhxc)                          0.009   0.1         0.009   0.1              1                   1.00       1.00
- sigma(getW)                               0.008   0.0         0.008   0.0              1                   1.00       1.00
- sigma(calc_sigx_me)                       0.101   0.6         0.101   0.6              1                   1.00       1.00
- sigma(calc_sigc_me)                      14.034  90.4        14.068  90.2              6                   1.00       1.00

- subtotal                                 14.266  91.9        14.300  91.7                                  1.00       1.00

 Partitioning of calc_sigc_me
- calc_sigc_me                             14.034  90.4        14.068  90.2              6                   1.00       1.00
 
- calc_sigc_me(Init)                        0.030   0.2         0.030   0.2              6                   1.00       1.00
- calc_sigc_me(Init q)                      0.004   0.0         0.004   0.0             64                   1.00       1.00
- calc_sigc_me(loop)                       13.999  90.2        14.033  89.9             64                   1.00       1.00

- subtotal                                 14.033  90.4        14.067  90.2                                  1.00       1.00

 Partitioning of inwffil
- inwffil                                   0.006   0.0         0.006   0.0              2                   1.00       1.00
 
- inwffil(call newkpt)                      0.006   0.0         0.006   0.0              2                   1.00       1.00

- subtotal                                  0.006   0.0         0.006   0.0                                  1.00       1.00

 Partitioning of newkpt
- newkpt                                    0.006   0.0         0.006   0.0              2                   1.00       1.00
 
- newkpt(call wfconv)                       0.006   0.0         0.006   0.0              8                   1.00       1.00

- subtotal                                  0.006   0.0         0.006   0.0                                  1.00       1.00

 Partitioning of newvtr
- newvtr                                    0.001   0.0         0.001   0.0              4                   1.00       1.00
 

- subtotal                                  0.001   0.0         0.001   0.0                                  1.00       1.00

 Partitioning of fourdp (upwards partitioning)
- fourdp                                    0.004   0.0         0.006   0.0             39                   0.75       0.75
 
- fourdp%(other)                            0.004   0.0         0.006   0.0             37                   0.74       0.74

- subtotal                                  0.004   0.0         0.006   0.0                                  0.75       0.75

 Partitioning of afterscfloop
- afterscfloop                              0.004   0.0         0.004   0.0              2                   1.00       1.00
 
- afterscfloop(forstr)                      0.004   0.0         0.004   0.0              2                   1.00       1.00

- subtotal                                  0.004   0.0         0.004   0.0                                  1.00       1.00

 Partitioning of forstr
- forstr                                    0.004   0.0         0.004   0.0              1                   1.00       1.00
 

- subtotal                                  0.004   0.0         0.004   0.0                                  1.00       1.00

 Partitioning of forstrnps
- forstrnps                                 0.000   0.0         0.000   0.0              1                   1.00       1.00
 

- subtotal                                  0.000   0.0         0.000   0.0                                  0.99       0.99

 Partitioning of outscfcv
- outscfcv                                  0.019   0.1         0.039   0.3              2                   0.49       0.49
 
- outscfcv(output GSR)                      0.018   0.1         0.038   0.2              2                   0.48       0.48

- subtotal                                  0.019   0.1         0.039   0.3                                  0.49       0.49
-
-Synchronisation (=leave_test) and MPI calls 
- communic.MPI                              0.016   0.1         0.016   0.1          31902                   1.01       1.01
-
- forstrnps:synchr                          0.000   0.0         0.000   0.0              2                   0.91       0.91
- subtotal                                  0.000   0.0         0.000   0.0                                  0.91       0.91

 Additional information
- timana(1)                                 0.000   0.0         0.000   0.0              1                   1.11       1.11
- total timab                               0.210   1.4         0.210   1.3         218591                   1.00       1.00
- fourwf                                    0.145   0.9         0.145   0.9           4850                   1.00       1.00
- mklocl(2)                                 0.000   0.0         0.000   0.0              1                   1.00       1.00
- nonlop(forstr)                            0.000   0.0         0.000   0.0              8                   1.01       1.01
- nonlop(total)                             0.027   0.2         0.027   0.2           4818                   0.99       0.99
- calc_sigc_me(1)                       16136.720******7617483596.377******           1920                   0.00       0.00
- calc_sigc_me(rho_tw_g)                    0.457   2.9         0.458   2.9           1920                   1.00       1.00
- calc_sigc_me(2)                          13.501  86.9        13.534  86.7          15360                   1.00       1.00
- calc_sigc_me(sigma_me)                    0.013   0.1         0.013   0.1          15360                   1.00       1.00
- cchi0                                     0.385   2.5         0.385   2.5              5                   1.00       1.00
- read_rho                                  0.000   0.0         0.000   0.0              1                   1.00       1.00

 timana : in multi dataset mode, the more detailed analysis is not done.

================================================================================

 Suggested references for the acknowledgment of ABINIT usage.

 The users of ABINIT have little formal obligations with respect to the ABINIT group
 (those specified in the GNU General Public License, http://www.gnu.org/copyleft/gpl.txt).
 However, it is common practice in the scientific literature,
 to acknowledge the efforts of people that have made the research possible.
 In this spirit, please find below suggested citations of work written by ABINIT developers,
 corresponding to implementations inside of ABINIT that you have used in the present run.
 Note also that it will be of great value to readers of publications presenting these results,
 to read papers enabling them to understand the theoretical formalism and details
 of the ABINIT implementation.
 For information on why they are suggested, see also https://docs.abinit.org/theory/acknowledgments.
-
- [1] The Abinit project: Impact, environment and recent developments.
- Computer Phys. Comm. 248, 107042 (2020).
- X.Gonze, B. Amadon, G. Antonius, F.Arnardi, L.Baguet, J.-M.Beuken,
- J.Bieder, F.Bottin, J.Bouchet, E.Bousquet, N.Brouwer, F.Bruneval,
- G.Brunin, T.Cavignac, J.-B. Charraud, Wei Chen, M.Cote, S.Cottenier,
- J.Denier, G.Geneste, Ph.Ghosez, M.Giantomassi, Y.Gillet, O.Gingras,
- D.R.Hamann, G.Hautier, Xu He, N.Helbig, N.Holzwarth, Y.Jia, F.Jollet,
- W.Lafargue-Dit-Hauret, K.Lejaeghere, M.A.L.Marques, A.Martin, C.Martins,
- H.P.C. Miranda, F.Naccarato, K. Persson, G.Petretto, V.Planes, Y.Pouillon,
- S.Prokhorenko, F.Ricci, G.-M.Rignanese, A.H.Romero, M.M.Schmitt, M.Torrent,
- M.J.van Setten, B.Van Troeye, M.J.Verstraete, G.Zerah and J.W.Zwanzig
- Comment: the fifth generic paper describing the ABINIT project.
- Note that a version of this paper, that is not formatted for Computer Phys. Comm. 
- is available at https://www.abinit.org/sites/default/files/ABINIT20.pdf .
- The licence allows the authors to put it on the Web.
- DOI and bibtex: see https://docs.abinit.org/theory/bibliography/#gonze2020
-
- [2] ABINIT: Overview, and focus on selected capabilities
- J. Chem. Phys. 152, 124102 (2020).
- A. Romero, D.C. Allan, B. Amadon, G. Antonius, T. Applencourt, L.Baguet,
- J.Bieder, F.Bottin, J.Bouchet, E.Bousquet, F.Bruneval,
- G.Brunin, D.Caliste, M.Cote,
- J.Denier, C. Dreyer, Ph.Ghosez, M.Giantomassi, Y.Gillet, O.Gingras,
- D.R.Hamann, G.Hautier, F.Jollet, G. Jomard,
- A.Martin, 
- H.P.C. Miranda, F.Naccarato, G.Petretto, N.A. Pike, V.Planes,
- S.Prokhorenko, T. Rangel, F.Ricci, G.-M.Rignanese, M.Royo, M.Stengel, M.Torrent,
- M.J.van Setten, B.Van Troeye, M.J.Verstraete, J.Wiktor, J.W.Zwanziger, and X.Gonze.
- Comment: a global overview of ABINIT, with focus on selected capabilities .
- Note that a version of this paper, that is not formatted for J. Chem. Phys 
- is available at https://www.abinit.org/sites/default/files/ABINIT20_JPC.pdf .
- The licence allows the authors to put it on the Web.
- DOI and bibtex: see https://docs.abinit.org/theory/bibliography/#romero2020
-
- [3] Recent developments in the ABINIT software package.
- Computer Phys. Comm. 205, 106 (2016).
- X.Gonze, F.Jollet, F.Abreu Araujo, D.Adams, B.Amadon, T.Applencourt,
- C.Audouze, J.-M.Beuken, J.Bieder, A.Bokhanchuk, E.Bousquet, F.Bruneval
- D.Caliste, M.Cote, F.Dahm, F.Da Pieve, M.Delaveau, M.Di Gennaro,
- B.Dorado, C.Espejo, G.Geneste, L.Genovese, A.Gerossier, M.Giantomassi,
- Y.Gillet, D.R.Hamann, L.He, G.Jomard, J.Laflamme Janssen, S.Le Roux,
- A.Levitt, A.Lherbier, F.Liu, I.Lukacevic, A.Martin, C.Martins,
- M.J.T.Oliveira, S.Ponce, Y.Pouillon, T.Rangel, G.-M.Rignanese,
- A.H.Romero, B.Rousseau, O.Rubel, A.A.Shukri, M.Stankovski, M.Torrent,
- M.J.Van Setten, B.Van Troeye, M.J.Verstraete, D.Waroquier, J.Wiktor,
- B.Xu, A.Zhou, J.W.Zwanziger.
- Comment: the fourth generic paper describing the ABINIT project.
- Note that a version of this paper, that is not formatted for Computer Phys. Comm. 
- is available at https://www.abinit.org/sites/default/files/ABINIT16.pdf .
- The licence allows the authors to put it on the Web.
- DOI and bibtex: see https://docs.abinit.org/theory/bibliography/#gonze2016
-
- And optionally:
-
- [4] ABINIT: First-principles approach of materials and nanosystem properties.
- Computer Phys. Comm. 180, 2582-2615 (2009).
- X. Gonze, B. Amadon, P.-M. Anglade, J.-M. Beuken, F. Bottin, P. Boulanger, F. Bruneval,
- D. Caliste, R. Caracas, M. Cote, T. Deutsch, L. Genovese, Ph. Ghosez, M. Giantomassi
- S. Goedecker, D.R. Hamann, P. Hermet, F. Jollet, G. Jomard, S. Leroux, M. Mancini, S. Mazevet,
- M.J.T. Oliveira, G. Onida, Y. Pouillon, T. Rangel, G.-M. Rignanese, D. Sangalli, R. Shaltaf,
- M. Torrent, M.J. Verstraete, G. Zerah, J.W. Zwanziger
- Comment: the third generic paper describing the ABINIT project.
- Note that a version of this paper, that is not formatted for Computer Phys. Comm. 
- is available at https://www.abinit.org/sites/default/files/ABINIT_CPC_v10.pdf .
- The licence allows the authors to put it on the Web.
- DOI and bibtex: see https://docs.abinit.org/theory/bibliography/#gonze2009
-
- Proc.   0 individual time (sec): cpu=         15.5  wall=         15.6
 
================================================================================
 
 Calculation completed.
.Delivered  10 WARNINGs and  17 COMMENTs to log file.
+Overall time at end (sec) : cpu=         15.5  wall=         15.6
- [ALL OK] MEMORY CONSUMPTION REPORT FOR C CODE:
-   There were 331 allocations and 331 deallocations in C code
- [ALL OK] MEMORY CONSUMPTION REPORT FOR FORTRAN CODE:
-   There were 273436 allocations and 273436 deallocations in Fortran
-   Remaining memory at the end of the calculation is 0
